/*--------------------------------*- C++ -*----------------------------------*| =========                 |                                                 |
| \      /  F ield         | OpenFOAM: The Open Source CFD Toolbox           |
|  \    /   O peration     | Version:  dev                                   |
|   \  /    A nd           | Web:      www.OpenFOAM.org                      |
|    \/     M anipulation  |                                                 |
\*---------------------------------------------------------------------------*/
FoamFile
{
    version     2.0;
    format      ascii;
    class       volScalarField;
    location    "0";
    object      thetaVar.stable;
}
// * * * * * * * * * * * * * * * * * * * * * * * * * * * * * * * * * * * * * //

dimensions      [0 0 0 2 0 0 0];

internalField   nonuniform List<scalar> 
300
(
0
1.0466290506e-06
0
0
4.961438199e-05
0
0
0.000410827351142
0
0
0.00169354447864
0
0
0.00482886440611
0
0
0.0109641190312
0
0
0.0213079289756
0
0
0.0369524070494
0
0
0.0586968948189
0
0
0.0868955656436
0
0
0.121347681879
0
0
0.161244199492
0
0
0.205178145201
0
0
0.251219300327
0
0
0.2970468978
0
0
0.340127911457
0
0
0.377923703462
0
0
0.408104794147
0
0
0.428752529389
0
0
0.438527696956
0
0
0.436789270596
0
0
0.423651568907
0
0
0.399974046402
0
0
0.367284765632
0
0
0.327645193903
0
0
0.283469738116
0
0
0.237317942411
0
0
0.191679936139
0
0
0.148776264565
0
0
0.110391656141
0
0
0.0777586837465
0
0
0.0515020150094
0
0
0.031647540758
0
0
0.0176937574877
0
0
0.00873600381136
0
0
0.00362818117089
0
0
0.00116194305428
0
0
0.000240258869596
0
0
2.05388830729e-05
0
0
1.31137555792e-07
0
0
0.0
0
0
0.0
0
0
0.0
0
0
0.0
0
0
0.0
0
0
0.0
0
0
0.0
0
0
0.0
0
0
0.0
0
0
0.0
0
0
0.0
0
0
0.0
0
0
0.0
0
0
0.0
0
0
0.0
0
0
0.0
0
0
0.0
0
0
0.0
0
0
0.0
0
0
0.0
0
0
0.0
0
0
0.0
0
0
0.0
0
0
0.0
0
0
0.0
0
0
0.0
0
0
0.0
0
0
0.0
0
0
0.0
0
0
0.0
0
0
0.0
0
0
0.0
0
0
0.0
0
0
0.0
0
0
0.0
0
0
0.0
0
0
0.0
0
0
0.0
0
0
0.0
0
0
0.0
0
0
0.0
0
0
0.0
0
0
0.0
0
0
0.0
0
0
0.0
0
0
0.0
0
0
0.0
0
0
0.0
0
0
0.0
0
0
0.0
0
0
0.0
0
0
0.0
0
0
0.0
0
0
0.0
0
0
0.0
0
0
0.0
0
0
0.0
0
0
0.0
0
0
0.0
0
0
0.0
0
)
;

boundaryField
{
    ground
    {
        type            zeroGradient;
    }
    top
    {
        type            zeroGradient;
    }
    left
    {
        type            zeroGradient;
    }
    right
    {
        type            zeroGradient;
    }
    defaultFaces
    {
        type            empty;
    }
}


// ************************************************************************* //