/*--------------------------------*- C++ -*----------------------------------*| =========                 |                                                 |
| \      /  F ield         | OpenFOAM: The Open Source CFD Toolbox           |
|  \    /   O peration     | Version:  dev                                   |
|   \  /    A nd           | Web:      www.OpenFOAM.org                      |
|    \/     M anipulation  |                                                 |
\*---------------------------------------------------------------------------*/
FoamFile
{
    version     2.0;
    format      ascii;
    class       volScalarField;
    location    "0";
    object      theta.stable;
}
// * * * * * * * * * * * * * * * * * * * * * * * * * * * * * * * * * * * * * //

dimensions      [0 0 0 1 0 0 0];

internalField   nonuniform List<scalar> 
300
(
300
300.000199581
300
300
300.002233922
300
300
300.007712769
300
300
300.017368628
300
300
300.03150206
300
300
300.050101707
300
300
300.072901278
300
300
300.099420578
300
300
300.129002008
300
300
300.160846334
300
300
300.194048929
300
300
300.227636606
300
300
300.260604622
300
300
300.291953204
300
300
300.320722748
300
300
300.346026866
300
300
300.36708241
300
300
300.383235675
300
300
300.393984103
300
300
300.398992826
300
300
300.398105701
300
300
300.391350388
300
300
300.378937455
300
300
300.361253491
300
300
300.338848385
300
300
300.312417167
300
300
300.282776899
300
300
300.250839239
300
300
300.217579426
300
300
300.184002498
300
300
300.151107602
300
300
300.119851246
300
300
300.091110285
300
300
300.065645239
300
300
300.044064232
300
300
300.026787223
300
300
300.014008718
300
300
300.005653798
300
300
300.001310877
300
300
300.000052915
300
300
300.0
300
300
300.0
300
300
300.0
300
300
300.0
300
300
300.0
300
300
300.0
300
300
300.0
300
300
300.0
300
300
300.0
300
300
300.0
300
300
300.0
300
300
300.0
300
300
300.0
300
300
300.0
300
300
300.0
300
300
300.0
300
300
300.0
300
300
300.0
300
300
300.0
300
300
300.0
300
300
300.0
300
300
300.0
300
300
300.0
300
300
300.0
300
300
300.0
300
300
300.0
300
300
300.0
300
300
300.0
300
300
300.0
300
300
300.0
300
300
300.0
300
300
300.0
300
300
300.0
300
300
300.0
300
300
300.0
300
300
300.0
300
300
300.0
300
300
300.0
300
300
300.0
300
300
300.0
300
300
300.0
300
300
300.0
300
300
300.0
300
300
300.0
300
300
300.0
300
300
300.0
300
300
300.0
300
300
300.0
300
300
300.0
300
300
300.0
300
300
300.0
300
300
300.0
300
300
300.0
300
300
300.0
300
300
300.0
300
300
300.0
300
300
300.0
300
300
300.0
300
300
300.0
300
300
300.0
300
)
;

boundaryField
{
    ground
    {
        type            zeroGradient;
    }
    top
    {
        type            zeroGradient;
    }
    left
    {
        type            zeroGradient;
    }
    right
    {
        type            zeroGradient;
    }
    defaultFaces
    {
        type            empty;
    }
}


// ************************************************************************* //