/*--------------------------------*- C++ -*----------------------------------*| =========                 |                                                 |
| \      /  F ield         | OpenFOAM: The Open Source CFD Toolbox           |
|  \    /   O peration     | Version:  dev                                   |
|   \  /    A nd           | Web:      www.OpenFOAM.org                      |
|    \/     M anipulation  |                                                 |
\*---------------------------------------------------------------------------*/
FoamFile
{
    version     2.0;
    format      ascii;
    class       volScalarField;
    location    "0";
    object      theta.buoyant;
}
// * * * * * * * * * * * * * * * * * * * * * * * * * * * * * * * * * * * * * //

dimensions      [0 0 0 1 0 0 0];

internalField   nonuniform List<scalar> 
200
(
300.002882624
300.002882624
300.015784645
300.015784645
300.042496565
300.042496565
300.082683624
300.082683624
300.128526813
300.128526813
300.194044661
300.194044661
300.252272867
300.252272867
300.342349513
300.342349513
300.397665409
300.397665409
300.488994344
300.488994344
300.588824131
300.588824131
300.646638569
300.646638569
300.710112495
300.710112495
300.795412785
300.795412785
300.874081556
300.874081556
300.943745061
300.943745061
301.002315476
301.002315476
301.04804655
301.04804655
301.079580083
301.079580083
301.095982034
301.095982034
301.096767338
301.096767338
301.081912783
301.081912783
301.051857629
301.051857629
301.007491942
301.007491942
300.95013295
300.95013295
300.88149003
300.88149003
300.803619211
300.803619211
300.718868385
300.718868385
300.64929188
300.64929188
300.598915978
300.598915978
300.498842973
300.498842973
300.402553306
300.402553306
300.351945454
300.351945454
300.260757876
300.260757876
300.199228504
300.199228504
300.133224839
300.133224839
300.088295798
300.088295798
300.045743424
300.045743424
300.017928534
300.017928534
300.003566389
300.003566389
300.0
300.0
300.0
300.0
300.0
300.0
300.0
300.0
300.0
300.0
300.0
300.0
300.0
300.0
300.0
300.0
300.0
300.0
300.0
300.0
300.0
300.0
300.0
300.0
300.0
300.0
300.0
300.0
300.0
300.0
300.0
300.0
300.0
300.0
300.0
300.0
300.0
300.0
300.0
300.0
300.0
300.0
300.0
300.0
300.0
300.0
300.0
300.0
300.0
300.0
300.0
300.0
300.0
300.0
300.0
300.0
300.0
300.0
300.0
300.0
300.0
300.0
300.0
300.0
300.0
300.0
300.0
300.0
300.0
300.0
300.0
300.0
300.0
300.0
300.0
300.0
300.0
300.0
300.0
300.0
300.0
300.0
300.0
300.0
300.0
300.0
300.0
300.0
300.0
300.0
300.0
300.0
300.0
300.0
300.0
300.0
300.0
300.0
300.0
300.0
300.0
300.0
300.0
300.0
300.0
300.0
300.0
300.0
300.0
300.0
300.0
300.0
300.0
300.0
300.0
300.0
300.0
300.0
300.0
300.0
)
;

boundaryField
{
    ground
    {
        type            zeroGradient;
    }
    top
    {
        type            zeroGradient;
    }
    left
    {
        type            zeroGradient;
    }
    right
    {
        type            zeroGradient;
    }
    defaultFaces
    {
        type            empty;
    }
}


// ************************************************************************* //