/*--------------------------------*- C++ -*----------------------------------*| =========                 |                                                 |
| \      /  F ield         | OpenFOAM: The Open Source CFD Toolbox           |
|  \    /   O peration     | Version:  dev                                   |
|   \  /    A nd           | Web:      www.OpenFOAM.org                      |
|    \/     M anipulation  |                                                 |
\*---------------------------------------------------------------------------*/
FoamFile
{
    version     2.0;
    format      ascii;
    class       volScalarField;
    location    "0";
    object      theta;
}
// * * * * * * * * * * * * * * * * * * * * * * * * * * * * * * * * * * * * * //

dimensions      [0 0 0 1 0 0 0];

internalField   nonuniform List<scalar> 
200
(
300.00000663
300.00000663
300.000067874
300.000067874
300.000225232
300.000225232
300.000496102
300.000496102
300.000886835
300.000886835
300.001397122
300.001397122
300.002018183
300.002018183
300.002738796
300.002738796
300.003539222
300.003539222
300.004400949
300.004400949
300.005299417
300.005299417
300.00620773
300.00620773
300.007101125
300.007101125
300.007954128
300.007954128
300.008740816
300.008740816
300.009437451
300.009437451
300.010023155
300.010023155
300.010480466
300.010480466
300.010795801
300.010795801
300.01095982
300.01095982
300.010967673
300.010967673
300.010819128
300.010819128
300.010518576
300.010518576
300.010074919
300.010074919
300.00950133
300.00950133
300.0088149
300.0088149
300.008036192
300.008036192
300.007188684
300.007188684
300.006298131
300.006298131
300.005390244
300.005390244
300.004489587
300.004489587
300.00362298
300.00362298
300.002815564
300.002815564
300.002086063
300.002086063
300.001454368
300.001454368
300.000932574
300.000932574
300.000529775
300.000529775
300.000247014
300.000247014
300.000078886
300.000078886
300.000009273
300.000009273
300.0
300.0
300.0
300.0
300.0
300.0
300.0
300.0
300.0
300.0
300.0
300.0
300.0
300.0
300.0
300.0
300.0
300.0
300.0
300.0
300.0
300.0
300.0
300.0
300.0
300.0
300.0
300.0
300.0
300.0
300.0
300.0
300.0
300.0
300.0
300.0
300.0
300.0
300.0
300.0
300.0
300.0
300.0
300.0
300.0
300.0
300.0
300.0
300.0
300.0
300.0
300.0
300.0
300.0
300.0
300.0
300.0
300.0
300.0
300.0
300.0
300.0
300.0
300.0
300.0
300.0
300.0
300.0
300.0
300.0
300.0
300.0
300.0
300.0
300.0
300.0
300.0
300.0
300.0
300.0
300.0
300.0
300.0
300.0
300.0
300.0
300.0
300.0
300.0
300.0
300.0
300.0
300.0
300.0
300.0
300.0
300.0
300.0
300.0
300.0
300.0
300.0
300.0
300.0
300.0
300.0
300.0
300.0
300.0
300.0
300.0
300.0
300.0
300.0
300.0
300.0
300.0
300.0
300.0
300.0
)
;

boundaryField
{
    ground
    {
        type            zeroGradient;
    }
    top
    {
        type            zeroGradient;
    }
    left
    {
        type            zeroGradient;
    }
    right
    {
        type            zeroGradient;
    }
    defaultFaces
    {
        type            empty;
    }
}


// ************************************************************************* //