/*--------------------------------*- C++ -*----------------------------------*| =========                 |                                                 |
| \      /  F ield         | OpenFOAM: The Open Source CFD Toolbox           |
|  \    /   O peration     | Version:  dev                                   |
|   \  /    A nd           | Web:      www.OpenFOAM.org                      |
|    \/     M anipulation  |                                                 |
\*---------------------------------------------------------------------------*/
FoamFile
{
    version     2.0;
    format      ascii;
    class       volScalarField;
    location    "0";
    object      sigma.stable;
}
// * * * * * * * * * * * * * * * * * * * * * * * * * * * * * * * * * * * * * //

dimensions      [0 0 0 0 0 0 0];

internalField   nonuniform List<scalar> 
200
(
0.9977
0.9977
0.9957
0.9957
0.9947
0.9947
0.994
0.994
0.9931
0.9931
0.9928
0.9928
0.992
0.992
0.992
0.992
0.9911
0.9911
0.991
0.991
0.991
0.991
0.9904
0.9904
0.99
0.99
0.99
0.99
0.99
0.99
0.99
0.99
0.99
0.99
0.99
0.99
0.99
0.99
0.99
0.99
0.99
0.99
0.99
0.99
0.99
0.99
0.99
0.99
0.99
0.99
0.99
0.99
0.99
0.99
0.99
0.99
0.9903
0.9903
0.991
0.991
0.991
0.991
0.991
0.991
0.992
0.992
0.992
0.992
0.9927
0.9927
0.993
0.993
0.994
0.994
0.9946
0.9946
0.9956
0.9956
0.9974
0.9974
0.9999
0.9999
0.999999999
0.999999999
0.999999999
0.999999999
0.999999999
0.999999999
0.999999999
0.999999999
0.999999999
0.999999999
0.999999999
0.999999999
0.999999999
0.999999999
0.999999999
0.999999999
0.999999999
0.999999999
0.999999999
0.999999999
0.999999999
0.999999999
0.999999999
0.999999999
0.999999999
0.999999999
0.999999999
0.999999999
0.999999999
0.999999999
0.999999999
0.999999999
0.999999999
0.999999999
0.999999999
0.999999999
0.999999999
0.999999999
0.999999999
0.999999999
0.999999999
0.999999999
0.999999999
0.999999999
0.999999999
0.999999999
0.999999999
0.999999999
0.999999999
0.999999999
0.999999999
0.999999999
0.999999999
0.999999999
0.999999999
0.999999999
0.999999999
0.999999999
0.999999999
0.999999999
0.999999999
0.999999999
0.999999999
0.999999999
0.999999999
0.999999999
0.999999999
0.999999999
0.999999999
0.999999999
0.999999999
0.999999999
0.999999999
0.999999999
0.999999999
0.999999999
0.999999999
0.999999999
0.999999999
0.999999999
0.999999999
0.999999999
0.999999999
0.999999999
0.999999999
0.999999999
0.999999999
0.999999999
0.999999999
0.999999999
0.999999999
0.999999999
0.999999999
0.999999999
0.999999999
0.999999999
0.999999999
0.999999999
0.999999999
0.999999999
0.999999999
0.999999999
0.999999999
0.999999999
0.999999999
0.999999999
0.999999999
0.999999999
0.999999999
0.999999999
0.999999999
0.999999999
0.999999999
0.999999999
0.999999999
0.999999999
0.999999999
0.999999999
)
;

boundaryField
{
    ground
    {
        type            zeroGradient;
    }
    top
    {
        type            zeroGradient;
    }
    left
    {
        type            zeroGradient;
    }
    right
    {
        type            zeroGradient;
    }
    defaultFaces
    {
        type            empty;
    }
}


// ************************************************************************* //