/*--------------------------------*- C++ -*----------------------------------*| =========                 |                                                 |
| \      /  F ield         | OpenFOAM: The Open Source CFD Toolbox           |
|  \    /   O peration     | Version:  dev                                   |
|   \  /    A nd           | Web:      www.OpenFOAM.org                      |
|    \/     M anipulation  |                                                 |
\*---------------------------------------------------------------------------*/
FoamFile
{
    version     2.0;
    format      ascii;
    class       volScalarField;
    location    "0";
    object      theta;
}
// * * * * * * * * * * * * * * * * * * * * * * * * * * * * * * * * * * * * * //

dimensions      [0 0 0 1 0 0 0];

internalField   nonuniform List<scalar> 
300
(
300.0
300.000009741
300.0
300.0
300.000108993
300.0
300.0
300.00037648
300.0
300.0
300.000848127
300.0
300.0
300.001539021
300.0
300.0
300.002449168
300.0
300.0
300.003566518
300.0
300.0
300.004867433
300.0
300.0
300.006321838
300.0
300.0
300.007889804
300.0
300.0
300.009529954
300.0
300.0
300.011192841
300.0
300.0
300.012831275
300.0
300.0
300.014397265
300.0
300.0
300.015842673
300.0
300.0
300.017123432
300.0
300.0
300.018201258
300.0
300.0
300.019044035
300.0
300.0
300.019625788
300.0
300.0
300.019928575
300.0
300.0
300.019943076
300.0
300.0
300.019668843
300.0
300.0
300.019114318
300.0
300.0
300.018296599
300.0
300.0
300.017240917
300.0
300.0
300.015978843
300.0
300.0
300.014547995
300.0
300.0
300.012991953
300.0
300.0
300.011358534
300.0
300.0
300.009696044
300.0
300.0
300.008051359
300.0
300.0
300.006474147
300.0
300.0
300.005006609
300.0
300.0
300.003688775
300.0
300.0
300.002551842
300.0
300.0
300.001620317
300.0
300.0
300.000907252
300.0
300.0
300.000414056
300.0
300.0
300.000127381
300.0
300.0
300.000013804
300.0
300.0
300.0
300.0
300.0
300.0
300.0
300.0
300.0
300.0
300.0
300.0
300.0
300.0
300.0
300.0
300.0
300.0
300.0
300.0
300.0
300.0
300.0
300.0
300.0
300.0
300.0
300.0
300.0
300.0
300.0
300.0
300.0
300.0
300.0
300.0
300.0
300.0
300.0
300.0
300.0
300.0
300.0
300.0
300.0
300.0
300.0
300.0
300.0
300.0
300.0
300.0
300.0
300.0
300.0
300.0
300.0
300.0
300.0
300.0
300.0
300.0
300.0
300.0
300.0
300.0
300.0
300.0
300.0
300.0
300.0
300.0
300.0
300.0
300.0
300.0
300.0
300.0
300.0
300.0
300.0
300.0
300.0
300.0
300.0
300.0
300.0
300.0
300.0
300.0
300.0
300.0
300.0
300.0
300.0
300.0
300.0
300.0
300.0
300.0
300.0
300.0
300.0
300.0
300.0
300.0
300.0
300.0
300.0
300.0
300.0
300.0
300.0
300.0
300.0
300.0
300.0
300.0
300.0
300.0
300.0
300.0
300.0
300.0
300.0
300.0
300.0
300.0
300.0
300.0
300.0
300.0
300.0
300.0
300.0
300.0
300.0
300.0
300.0
300.0
300.0
300.0
300.0
300.0
300.0
300.0
300.0
300.0
300.0
300.0
300.0
300.0
300.0
300.0
300.0
300.0
300.0
300.0
300.0
300.0
300.0
300.0
300.0
300.0
300.0
300.0
300.0
300.0
300.0
300.0
300.0
300.0
300.0
300.0
300.0
300.0
300.0
300.0
300.0
300.0
300.0
)
;

boundaryField
{
    ground
    {
        type            zeroGradient;
    }
    top
    {
        type            zeroGradient;
    }
    left
    {
        type            zeroGradient;
    }
    right
    {
        type            zeroGradient;
    }
    defaultFaces
    {
        type            empty;
    }
}


// ************************************************************************* //