/*--------------------------------*- C++ -*----------------------------------*| =========                 |                                                 |
| \      /  F ield         | OpenFOAM: The Open Source CFD Toolbox           |
|  \    /   O peration     | Version:  dev                                   |
|   \  /    A nd           | Web:      www.OpenFOAM.org                      |
|    \/     M anipulation  |                                                 |
\*---------------------------------------------------------------------------*/
FoamFile
{
    version     2.0;
    format      ascii;
    class       volScalarField;
    location    "0";
    object      thetaVar.buoyant;
}
// * * * * * * * * * * * * * * * * * * * * * * * * * * * * * * * * * * * * * //

dimensions      [0 0 0 2 0 0 0];

internalField   nonuniform List<scalar> 
300
(
0.0
5.09942638227e-07
0.0
0.0
2.49290264717e-05
0.0
0.0
0.00021089028672
0.0
0.0
0.000883520162113
0.0
0.0
0.00255318623559
0.0
0.0
0.00586493836447
0.0
0.0
0.0115167189133
0.0
0.0
0.0201617235272
0.0
0.0
0.0323033144241
0.0
0.0
0.0482076539918
0.0
0.0
0.0678242811228
0.0
0.0
0.0907591321773
0.0
0.0
0.116255977266
0.0
0.0
0.143238679524
0.0
0.0
0.170386300117
0.0
0.0
0.196226080495
0.0
0.0
0.219250551575
0.0
0.0
0.238047180911
0.0
0.0
0.251425376468
0.0
0.0
0.258518291408
0.0
0.0
0.258860194798
0.0
0.0
0.252428533543
0.0
0.0
0.239645974108
0.0
0.0
0.221342213183
0.0
0.0
0.198679728773
0.0
0.0
0.173054133249
0.0
0.0
0.145969496337
0.0
0.0
0.11890750288
0.0
0.0
0.0932090552248
0.0
0.0
0.0699780737791
0.0
0.0
0.0500059746217
0.0
0.0
0.0337226433609
0.0
0.0
0.0212119656384
0.0
0.0
0.0122367260827
0.0
0.0
0.00631337355215
0.0
0.0
0.00279904447318
0.0
0.0
0.000995801752069
0.0
0.0
0.00024918105442
0.0
0.0
3.24509872045e-05
0.0
0.0
8.8144420744e-07
0.0
0.0
4.21528886776e-68
0.0
0.0
0.0
0.0
0.0
0.0
0.0
0.0
0.0
0.0
0.0
0.0
0.0
0.0
0.0
0.0
0.0
0.0
0.0
0.0
0.0
0.0
0.0
0.0
0.0
0.0
0.0
0.0
0.0
0.0
0.0
0.0
0.0
0.0
0.0
0.0
0.0
0.0
0.0
0.0
0.0
0.0
0.0
0.0
0.0
0.0
0.0
0.0
0.0
0.0
0.0
0.0
0.0
0.0
0.0
0.0
0.0
0.0
0.0
0.0
0.0
0.0
0.0
0.0
0.0
0.0
0.0
0.0
0.0
0.0
0.0
0.0
0.0
0.0
0.0
0.0
0.0
0.0
0.0
0.0
0.0
0.0
0.0
0.0
0.0
0.0
0.0
0.0
0.0
0.0
0.0
0.0
0.0
0.0
0.0
0.0
0.0
0.0
0.0
0.0
0.0
0.0
0.0
0.0
0.0
0.0
0.0
0.0
0.0
0.0
0.0
0.0
0.0
0.0
0.0
0.0
0.0
0.0
0.0
0.0
0.0
0.0
0.0
0.0
0.0
0.0
0.0
0.0
0.0
0.0
0.0
0.0
0.0
0.0
0.0
0.0
0.0
0.0
0.0
0.0
0.0
0.0
0.0
0.0
0.0
0.0
0.0
0.0
0.0
0.0
0.0
0.0
0.0
0.0
0.0
0.0
0.0
0.0
0.0
0.0
0.0
0.0
0.0
0.0
0.0
0.0
0.0
0.0
0.0
0.0
0.0
0.0
0.0
0.0
0.0
0.0
0.0
0.0
)
;

boundaryField
{
    ground
    {
        type            zeroGradient;
    }
    top
    {
        type            zeroGradient;
    }
    left
    {
        type            zeroGradient;
    }
    right
    {
        type            zeroGradient;
    }
    defaultFaces
    {
        type            empty;
    }
}


// ************************************************************************* //