/*--------------------------------*- C++ -*----------------------------------*| =========                 |                                                 |
| \      /  F ield         | OpenFOAM: The Open Source CFD Toolbox           |
|  \    /   O peration     | Version:  dev                                   |
|   \  /    A nd           | Web:      www.OpenFOAM.org                      |
|    \/     M anipulation  |                                                 |
\*---------------------------------------------------------------------------*/
FoamFile
{
    version     2.0;
    format      ascii;
    class       volScalarField;
    location    "0";
    object      thetaVar.buoyant;
}
// * * * * * * * * * * * * * * * * * * * * * * * * * * * * * * * * * * * * * //

dimensions      [0 0 0 2 0 0 0];

internalField   nonuniform List<scalar> 
300
(
0.0
7.10430311139e-06
0.0
0.0
0.000137055370969
0.0
0.0
0.000794665980127
0.0
0.0
0.00281011586407
0.0
0.0
0.00722584801527
0.0
0.0
0.0153525547931
0.0
0.0
0.0278185186619
0.0
0.0
0.0475576081061
0.0
0.0
0.0710439073791
0.0
0.0
0.106380339865
0.0
0.0
0.140661383465
0.0
0.0
0.188821852898
0.0
0.0
0.239583968727
0.0
0.0
0.284965799358
0.0
0.0
0.328756757591
0.0
0.0
0.379441072881
0.0
0.0
0.438518044449
0.0
0.0
0.470305054646
0.0
0.0
0.492626954695
0.0
0.0
0.504365758918
0.0
0.0
0.504929981895
0.0
0.0
0.494291134378
0.0
0.0
0.472985483172
0.0
0.0
0.442080955343
0.0
0.0
0.386600410018
0.0
0.0
0.33297289377
0.0
0.0
0.289448904678
0.0
0.0
0.244137924038
0.0
0.0
0.194637665793
0.0
0.0
0.1442687525
0.0
0.0
0.109644782315
0.0
0.0
0.0743479091989
0.0
0.0
0.0495593753378
0.0
0.0
0.0295384661196
0.0
0.0
0.0164668786567
0.0
0.0
0.00786425578919
0.0
0.0
0.00308052469543
0.0
0.0
0.000928287449509
0.0
0.0
0.000168174181763
0.0
0.0
1.06315679398e-05
0.0
0.0
0.0
0.0
0.0
0.0
0.0
0.0
0.0
0.0
0.0
0.0
0.0
0.0
0.0
0.0
0.0
0.0
0.0
0.0
0.0
0.0
0.0
0.0
0.0
0.0
0.0
0.0
0.0
0.0
0.0
0.0
0.0
0.0
0.0
0.0
0.0
0.0
0.0
0.0
0.0
0.0
0.0
0.0
0.0
0.0
0.0
0.0
0.0
0.0
0.0
0.0
0.0
0.0
0.0
0.0
0.0
0.0
0.0
0.0
0.0
0.0
0.0
0.0
0.0
0.0
0.0
0.0
0.0
0.0
0.0
0.0
0.0
0.0
0.0
0.0
0.0
0.0
0.0
0.0
0.0
0.0
0.0
0.0
0.0
0.0
0.0
0.0
0.0
0.0
0.0
0.0
0.0
0.0
0.0
0.0
0.0
0.0
0.0
0.0
0.0
0.0
0.0
0.0
0.0
0.0
0.0
0.0
0.0
0.0
0.0
0.0
0.0
0.0
0.0
0.0
0.0
0.0
0.0
0.0
0.0
0.0
0.0
0.0
0.0
0.0
0.0
0.0
0.0
0.0
0.0
0.0
0.0
0.0
0.0
0.0
0.0
0.0
0.0
0.0
0.0
0.0
0.0
0.0
0.0
0.0
0.0
0.0
0.0
0.0
0.0
0.0
0.0
0.0
0.0
0.0
0.0
0.0
0.0
0.0
0.0
0.0
0.0
0.0
0.0
0.0
0.0
0.0
0.0
0.0
0.0
0.0
0.0
0.0
0.0
0.0
0.0
0.0
0.0
0.0
0.0
)
;

boundaryField
{
    ground
    {
        type            zeroGradient;
    }
    top
    {
        type            zeroGradient;
    }
    left
    {
        type            zeroGradient;
    }
    right
    {
        type            zeroGradient;
    }
    defaultFaces
    {
        type            empty;
    }
}


// ************************************************************************* //