/*--------------------------------*- C++ -*----------------------------------*| =========                 |                                                 |
| \      /  F ield         | OpenFOAM: The Open Source CFD Toolbox           |
|  \    /   O peration     | Version:  dev                                   |
|   \  /    A nd           | Web:      www.OpenFOAM.org                      |
|    \/     M anipulation  |                                                 |
\*---------------------------------------------------------------------------*/
FoamFile
{
    version     2.0;
    format      ascii;
    class       volScalarField;
    location    "0";
    object      thetaVar.buoyant;
}
// * * * * * * * * * * * * * * * * * * * * * * * * * * * * * * * * * * * * * //

dimensions      [0 0 0 2 0 0 0];

internalField   nonuniform List<scalar> 
200
(
8.03745542692e-06
8.03745542692e-06
0.000150237709901
0.000150237709901
0.000861670521896
0.000861670521896
0.00290029085787
0.00290029085787
0.00776655758354
0.00776655758354
0.0155885573307
0.0155885573307
0.0302459438635
0.0302459438635
0.0469791480289
0.0469791480289
0.0782298420455
0.0782298420455
0.109714745725
0.109714745725
0.144219866628
0.144219866628
0.198008852152
0.198008852152
0.253798920924
0.253798920924
0.301823409143
0.301823409143
0.348162750163
0.348162750163
0.390758235116
0.390758235116
0.42766112638
0.42766112638
0.457146051969
0.457146051969
0.477812680268
0.477812680268
0.48866898497
0.48866898497
0.489190588856
0.489190588856
0.479352242824
0.479352242824
0.459629343478
0.459629343478
0.430969388104
0.430969388104
0.394735268594
0.394735268594
0.352624173754
0.352624173754
0.306567470474
0.306567470474
0.258618156092
0.258618156092
0.204708380761
0.204708380761
0.147843621134
0.147843621134
0.113006595637
0.113006595637
0.0819586506717
0.0819586506717
0.0488586571183
0.0488586571183
0.0317472473962
0.0317472473962
0.0168191785816
0.0168191785816
0.00848121561131
0.00848121561131
0.00316758476166
0.00316758476166
0.000995545565863
0.000995545565863
0.000184781011733
0.000184781011733
1.19862914484e-05
1.19862914484e-05
0.0
0.0
0.0
0.0
0.0
0.0
0.0
0.0
0.0
0.0
0.0
0.0
0.0
0.0
0.0
0.0
0.0
0.0
0.0
0.0
0.0
0.0
0.0
0.0
0.0
0.0
0.0
0.0
0.0
0.0
0.0
0.0
0.0
0.0
0.0
0.0
0.0
0.0
0.0
0.0
0.0
0.0
0.0
0.0
0.0
0.0
0.0
0.0
0.0
0.0
0.0
0.0
0.0
0.0
0.0
0.0
0.0
0.0
0.0
0.0
0.0
0.0
0.0
0.0
0.0
0.0
0.0
0.0
0.0
0.0
0.0
0.0
0.0
0.0
0.0
0.0
0.0
0.0
0.0
0.0
0.0
0.0
0.0
0.0
0.0
0.0
0.0
0.0
0.0
0.0
0.0
0.0
0.0
0.0
0.0
0.0
0.0
0.0
0.0
0.0
0.0
0.0
0.0
0.0
0.0
0.0
0.0
0.0
0.0
0.0
0.0
0.0
0.0
0.0
0.0
0.0
0.0
0.0
0.0
0.0
)
;

boundaryField
{
    ground
    {
        type            zeroGradient;
    }
    top
    {
        type            zeroGradient;
    }
    left
    {
        type            zeroGradient;
    }
    right
    {
        type            zeroGradient;
    }
    defaultFaces
    {
        type            empty;
    }
}


// ************************************************************************* //