/*--------------------------------*- C++ -*----------------------------------*| =========                 |                                                 |
| \      /  F ield         | OpenFOAM: The Open Source CFD Toolbox           |
|  \    /   O peration     | Version:  dev                                   |
|   \  /    A nd           | Web:      www.OpenFOAM.org                      |
|    \/     M anipulation  |                                                 |
\*---------------------------------------------------------------------------*/
FoamFile
{
    version     2.0;
    format      ascii;
    class       volScalarField;
    location    "0";
    object      thetaVar;
}
// * * * * * * * * * * * * * * * * * * * * * * * * * * * * * * * * * * * * * //

dimensions      [0 0 0 2 0 0 0];

internalField   nonuniform List<scalar> 
200
(
3.75540922095e-08
3.75540922095e-08
1.71278183429e-06
1.71278183429e-06
1.40877018556e-05
1.40877018556e-05
5.81751186338e-05
5.81751186338e-05
0.000166784848797
0.000166784848797
0.000381389644459
0.000381389644459
0.0007470272822
0.0007470272822
0.00130595769392
0.00130595769392
0.00209114572091
0.00209114572091
0.003120103576
0.003120103576
0.00439031969669
0.00439031969669
0.00587650687601
0.00587650687601
0.00753016078981
0.00753016078981
0.00928178093337
0.00928178093337
0.0110454113086
0.0110454113086
0.0127250642798
0.0127250642798
0.0142225107749
0.0142225107749
0.0154456360826
0.0154456360826
0.0163165090422
0.0163165090422
0.0167783383762
0.0167783383762
0.016800601965
0.016800601965
0.0163818216092
0.0163818216092
0.0155496977115
0.0155496977115
0.0143585900105
0.0143585900105
0.0128846036576
0.0128846036576
0.0112187859994
0.0112187859994
0.00945913268894
0.00945913268894
0.00770222193503
0.00770222193503
0.00603533030366
0.00603533030367
0.00452984099874
0.00452984099874
0.0032365017753
0.0032365017753
0.00218294434777
0.00218294434777
0.00137386667869
0.00137386667869
0.000793583677935
0.000793583677935
0.000410416393958
0.000410416393958
0.000182740819596
0.000182740819596
6.55017353148e-05
6.55017353148e-05
1.66142182154e-05
1.66142182154e-05
2.22111584634e-06
2.22111584634e-06
6.41481097421e-08
6.41481097421e-08
5.62263619437e-69
5.62263619437e-69
0.0
0.0
0.0
0.0
0.0
0.0
0.0
0.0
0.0
0.0
0.0
0.0
0.0
0.0
0.0
0.0
0.0
0.0
0.0
0.0
0.0
0.0
0.0
0.0
0.0
0.0
0.0
0.0
0.0
0.0
0.0
0.0
0.0
0.0
0.0
0.0
0.0
0.0
0.0
0.0
0.0
0.0
0.0
0.0
0.0
0.0
0.0
0.0
0.0
0.0
0.0
0.0
0.0
0.0
0.0
0.0
0.0
0.0
0.0
0.0
0.0
0.0
0.0
0.0
0.0
0.0
0.0
0.0
0.0
0.0
0.0
0.0
0.0
0.0
0.0
0.0
0.0
0.0
0.0
0.0
0.0
0.0
0.0
0.0
0.0
0.0
0.0
0.0
0.0
0.0
0.0
0.0
0.0
0.0
0.0
0.0
0.0
0.0
0.0
0.0
0.0
0.0
0.0
0.0
0.0
0.0
0.0
0.0
0.0
0.0
0.0
0.0
0.0
0.0
0.0
0.0
0.0
0.0
)
;

boundaryField
{
    ground
    {
        type            zeroGradient;
    }
    top
    {
        type            zeroGradient;
    }
    left
    {
        type            zeroGradient;
    }
    right
    {
        type            zeroGradient;
    }
    defaultFaces
    {
        type            empty;
    }
}


// ************************************************************************* //