/*--------------------------------*- C++ -*----------------------------------*| =========                 |                                                 |
| \      /  F ield         | OpenFOAM: The Open Source CFD Toolbox           |
|  \    /   O peration     | Version:  dev                                   |
|   \  /    A nd           | Web:      www.OpenFOAM.org                      |
|    \/     M anipulation  |                                                 |
\*---------------------------------------------------------------------------*/
FoamFile
{
    version     2.0;
    format      ascii;
    class       volScalarField;
    location    "0";
    object      theta.buoyant;
}
// * * * * * * * * * * * * * * * * * * * * * * * * * * * * * * * * * * * * * //

dimensions      [0 0 0 1 0 0 0];

internalField   nonuniform List<scalar> 
300
(
300.0
300.000097407
300.0
300.0
300.001089927
300.0
300.0
300.003764805
300.0
300.0
300.008481269
300.0
300.0
300.015390212
300.0
300.0
300.024491684
300.0
300.0
300.03566518
300.0
300.0
300.048674329
300.0
300.0
300.063218376
300.0
300.0
300.078898037
300.0
300.0
300.095299541
300.0
300.0
300.111928409
300.0
300.0
300.128312751
300.0
300.0
300.143972648
300.0
300.0
300.158426731
300.0
300.0
300.171234323
300.0
300.0
300.182012579
300.0
300.0
300.190440347
300.0
300.0
300.196257883
300.0
300.0
300.199285754
300.0
300.0
300.199430757
300.0
300.0
300.196688431
300.0
300.0
300.191143179
300.0
300.0
300.182965992
300.0
300.0
300.172409171
300.0
300.0
300.159788428
300.0
300.0
300.145479955
300.0
300.0
300.129919532
300.0
300.0
300.113585343
300.0
300.0
300.096960437
300.0
300.0
300.080513592
300.0
300.0
300.064741469
300.0
300.0
300.050066088
300.0
300.0
300.036887754
300.0
300.0
300.025518418
300.0
300.0
300.01620317
300.0
300.0
300.009072518
300.0
300.0
300.004140563
300.0
300.0
300.00127381
300.0
300.0
300.000138036
300.0
300.0
300.0
300.0
300.0
300.0
300.0
300.0
300.0
300.0
300.0
300.0
300.0
300.0
300.0
300.0
300.0
300.0
300.0
300.0
300.0
300.0
300.0
300.0
300.0
300.0
300.0
300.0
300.0
300.0
300.0
300.0
300.0
300.0
300.0
300.0
300.0
300.0
300.0
300.0
300.0
300.0
300.0
300.0
300.0
300.0
300.0
300.0
300.0
300.0
300.0
300.0
300.0
300.0
300.0
300.0
300.0
300.0
300.0
300.0
300.0
300.0
300.0
300.0
300.0
300.0
300.0
300.0
300.0
300.0
300.0
300.0
300.0
300.0
300.0
300.0
300.0
300.0
300.0
300.0
300.0
300.0
300.0
300.0
300.0
300.0
300.0
300.0
300.0
300.0
300.0
300.0
300.0
300.0
300.0
300.0
300.0
300.0
300.0
300.0
300.0
300.0
300.0
300.0
300.0
300.0
300.0
300.0
300.0
300.0
300.0
300.0
300.0
300.0
300.0
300.0
300.0
300.0
300.0
300.0
300.0
300.0
300.0
300.0
300.0
300.0
300.0
300.0
300.0
300.0
300.0
300.0
300.0
300.0
300.0
300.0
300.0
300.0
300.0
300.0
300.0
300.0
300.0
300.0
300.0
300.0
300.0
300.0
300.0
300.0
300.0
300.0
300.0
300.0
300.0
300.0
300.0
300.0
300.0
300.0
300.0
300.0
300.0
300.0
300.0
300.0
300.0
300.0
300.0
300.0
300.0
300.0
300.0
300.0
300.0
300.0
300.0
300.0
300.0
300.0
300.0
)
;

boundaryField
{
    ground
    {
        type            zeroGradient;
    }
    top
    {
        type            zeroGradient;
    }
    left
    {
        type            zeroGradient;
    }
    right
    {
        type            zeroGradient;
    }
    defaultFaces
    {
        type            empty;
    }
}


// ************************************************************************* //