/*--------------------------------*- C++ -*----------------------------------*| =========                 |                                                 |
| \      /  F ield         | OpenFOAM: The Open Source CFD Toolbox           |
|  \    /   O peration     | Version:  dev                                   |
|   \  /    A nd           | Web:      www.OpenFOAM.org                      |
|    \/     M anipulation  |                                                 |
\*---------------------------------------------------------------------------*/
FoamFile
{
    version     2.0;
    format      ascii;
    class       volScalarField;
    location    "0";
    object      thetaVar.buoyant;
}
// * * * * * * * * * * * * * * * * * * * * * * * * * * * * * * * * * * * * * //

dimensions      [0 0 0 2 0 0 0];

internalField   nonuniform List<scalar> 
300
(
0.0
3.86670556514e-06
0.0
0.0
0.000138277757393
0.0
0.0
0.00088072737425
0.0
0.0
0.00281011586407
0.0
0.0
0.00616586491222
0.0
0.0
0.0110241486821
0.0
0.0
0.0174185134883
0.0
0.0
0.0253053928978
0.0
0.0
0.0345612720015
0.0
0.0
0.044984317459
0.0
0.0
0.0563005168116
0.0
0.0
0.0681740975344
0.0
0.0
0.0802217341295
0.0
0.0
0.0920298166292
0.0
0.0
0.103173860827
0.0
0.0
0.11323900143
0.0
0.0
0.12184043278
0.0
0.0
0.128642652711
0.0
0.0
0.133376424124
0.0
0.0
0.135852492603
0.0
0.0
0.135971279547
0.0
0.0
0.133727997906
0.0
0.0
0.129212898382
0.0
0.0
0.122606631988
0.0
0.0
0.114170993877
0.0
0.0
0.104235576481
0.0
0.0
0.0931810916213
0.0
0.0
0.0814203075957
0.0
0.0
0.0693776770832
0.0
0.0
0.0574687974587
0.0
0.0
0.0460808428473
0.0
0.0
0.0355550373103
0.0
0.0
0.0261721053545
0.0
0.0
0.0181414478079
0.0
0.0
0.0115945597379
0.0
0.0
0.00658294692377
0.0
0.0
0.00308052469543
0.0
0.0
0.00101281293004
0.0
0.0
0.000174659911509
0.0
0.0
6.49769198615e-06
0.0
0.0
3.72380701609e-67
0.0
0.0
0.0
0.0
0.0
0.0
0.0
0.0
0.0
0.0
0.0
0.0
0.0
0.0
0.0
0.0
0.0
0.0
0.0
0.0
0.0
0.0
0.0
0.0
0.0
0.0
0.0
0.0
0.0
0.0
0.0
0.0
0.0
0.0
0.0
0.0
0.0
0.0
0.0
0.0
0.0
0.0
0.0
0.0
0.0
0.0
0.0
0.0
0.0
0.0
0.0
0.0
0.0
0.0
0.0
0.0
0.0
0.0
0.0
0.0
0.0
0.0
0.0
0.0
0.0
0.0
0.0
0.0
0.0
0.0
0.0
0.0
0.0
0.0
0.0
0.0
0.0
0.0
0.0
0.0
0.0
0.0
0.0
0.0
0.0
0.0
0.0
0.0
0.0
0.0
0.0
0.0
0.0
0.0
0.0
0.0
0.0
0.0
0.0
0.0
0.0
0.0
0.0
0.0
0.0
0.0
0.0
0.0
0.0
0.0
0.0
0.0
0.0
0.0
0.0
0.0
0.0
0.0
0.0
0.0
0.0
0.0
0.0
0.0
0.0
0.0
0.0
0.0
0.0
0.0
0.0
0.0
0.0
0.0
0.0
0.0
0.0
0.0
0.0
0.0
0.0
0.0
0.0
0.0
0.0
0.0
0.0
0.0
0.0
0.0
0.0
0.0
0.0
0.0
0.0
0.0
0.0
0.0
0.0
0.0
0.0
0.0
0.0
0.0
0.0
0.0
0.0
0.0
0.0
0.0
0.0
0.0
0.0
0.0
0.0
0.0
0.0
0.0
)
;

boundaryField
{
    ground
    {
        type            zeroGradient;
    }
    top
    {
        type            zeroGradient;
    }
    left
    {
        type            zeroGradient;
    }
    right
    {
        type            zeroGradient;
    }
    defaultFaces
    {
        type            empty;
    }
}


// ************************************************************************* //