/*--------------------------------*- C++ -*----------------------------------*| =========                 |                                                 |
| \      /  F ield         | OpenFOAM: The Open Source CFD Toolbox           |
|  \    /   O peration     | Version:  dev                                   |
|   \  /    A nd           | Web:      www.OpenFOAM.org                      |
|    \/     M anipulation  |                                                 |
\*---------------------------------------------------------------------------*/
FoamFile
{
    version     2.0;
    format      ascii;
    class       volScalarField;
    location    "0";
    object      thetaVar;
}
// * * * * * * * * * * * * * * * * * * * * * * * * * * * * * * * * * * * * * //

dimensions      [0 0 0 2 0 0 0];

internalField   nonuniform List<scalar> 
100
(
5.1876856992e-08
2.60111520684e-06
2.23758719673e-05
9.48730881257e-05
0.000276773021292
0.000640796393488
0.00126678168384
0.0022305011414
0.00359180287664
0.00538366177028
0.00760357708154
0.0102084710023
0.0131138374037
0.0161974084451
0.0193070993156
0.0222725182939
0.0249189067953
0.0270821339763
0.0286231805358
0.0294406657078
0.0294800789305
0.0287387798085
0.0272662409505
0.0251595078107
0.0225543544486
0.0196130315928
0.0165099130546
0.0134164837918
0.0104872275456
0.00784781697715
0.00558677364058
0.00375135385467
0.00234795244175
0.00134680470293
0.000690285432965
0.000303683938357
0.000107041380129
2.64742887511e-05
3.39285167157e-06
8.9901283618e-08
0.0
0.0
0.0
0.0
0.0
0.0
0.0
0.0
0.0
0.0
0.0
0.0
0.0
0.0
0.0
0.0
0.0
0.0
0.0
0.0
0.0
0.0
0.0
0.0
0.0
0.0
0.0
0.0
0.0
0.0
0.0
0.0
0.0
0.0
0.0
0.0
0.0
0.0
0.0
0.0
0.0
0.0
0.0
0.0
0.0
0.0
0.0
0.0
0.0
0.0
0.0
0.0
0.0
0.0
0.0
0.0
0.0
0.0
0.0
0.0
)
;

boundaryField
{
    ground
    {
        type            zeroGradient;
    }
    top
    {
        type            zeroGradient;
    }
    left
    {
        type            zeroGradient;
    }
    right
    {
        type            zeroGradient;
    }
    defaultFaces
    {
        type            empty;
    }
}


// ************************************************************************* //