/*--------------------------------*- C++ -*----------------------------------*| =========                 |                                                 |
| \      /  F ield         | OpenFOAM: The Open Source CFD Toolbox           |
|  \    /   O peration     | Version:  dev                                   |
|   \  /    A nd           | Web:      www.OpenFOAM.org                      |
|    \/     M anipulation  |                                                 |
\*---------------------------------------------------------------------------*/
FoamFile
{
    version     2.0;
    format      ascii;
    class       volScalarField;
    location    "0";
    object      theta.buoyant;
}
// * * * * * * * * * * * * * * * * * * * * * * * * * * * * * * * * * * * * * //

dimensions      [0 0 0 1 0 0 0];

internalField   nonuniform List<scalar> 
300
(
300.0
300.000865622
300.0
300.0
300.009685815
300.0
300.0
300.033456565
300.0
300.0
300.075370208
300.0
300.0
300.136481379
300.0
300.0
300.215372535
300.0
300.0
300.309742494
300.0
300.0
300.416912659
300.0
300.0
300.533896381
300.0
300.0
300.65747591
300.0
300.0
300.784284995
300.0
300.0
300.910895047
300.0
300.0
301.033902708
300.0
300.0
301.150016625
300.0
300.0
301.256141251
300.0
300.0
301.349455569
300.0
300.0
301.427484777
300.0
300.0
301.488163123
300.0
300.0
301.529886332
300.0
300.0
301.551552296
300.0
300.0
301.552589029
300.0
300.0
301.532969166
300.0
300.0
301.493210659
300.0
300.0
301.434363641
300.0
300.0
301.357983801
300.0
300.0
301.266092916
300.0
300.0
301.161127553
300.0
300.0
301.045877198
300.0
300.0
300.923413388
300.0
300.0
300.797011598
300.0
300.0
300.670067859
300.0
300.0
300.546012181
300.0
300.0
300.428220967
300.0
300.0
300.319930609
300.0
300.0
300.224154438
300.0
300.0
300.143605118
300.0
300.0
300.080624439
300.0
300.0
300.036795807
300.0
300.0
300.011319921
300.0
300.0
300.001226676
300.0
300.0
300.0
300.0
300.0
300.0
300.0
300.0
300.0
300.0
300.0
300.0
300.0
300.0
300.0
300.0
300.0
300.0
300.0
300.0
300.0
300.0
300.0
300.0
300.0
300.0
300.0
300.0
300.0
300.0
300.0
300.0
300.0
300.0
300.0
300.0
300.0
300.0
300.0
300.0
300.0
300.0
300.0
300.0
300.0
300.0
300.0
300.0
300.0
300.0
300.0
300.0
300.0
300.0
300.0
300.0
300.0
300.0
300.0
300.0
300.0
300.0
300.0
300.0
300.0
300.0
300.0
300.0
300.0
300.0
300.0
300.0
300.0
300.0
300.0
300.0
300.0
300.0
300.0
300.0
300.0
300.0
300.0
300.0
300.0
300.0
300.0
300.0
300.0
300.0
300.0
300.0
300.0
300.0
300.0
300.0
300.0
300.0
300.0
300.0
300.0
300.0
300.0
300.0
300.0
300.0
300.0
300.0
300.0
300.0
300.0
300.0
300.0
300.0
300.0
300.0
300.0
300.0
300.0
300.0
300.0
300.0
300.0
300.0
300.0
300.0
300.0
300.0
300.0
300.0
300.0
300.0
300.0
300.0
300.0
300.0
300.0
300.0
300.0
300.0
300.0
300.0
300.0
300.0
300.0
300.0
300.0
300.0
300.0
300.0
300.0
300.0
300.0
300.0
300.0
300.0
300.0
300.0
300.0
300.0
300.0
300.0
300.0
300.0
300.0
300.0
300.0
300.0
300.0
300.0
300.0
300.0
300.0
300.0
300.0
300.0
300.0
300.0
300.0
300.0
300.0
)
;

boundaryField
{
    ground
    {
        type            zeroGradient;
    }
    top
    {
        type            zeroGradient;
    }
    left
    {
        type            zeroGradient;
    }
    right
    {
        type            zeroGradient;
    }
    defaultFaces
    {
        type            empty;
    }
}


// ************************************************************************* //