/*--------------------------------*- C++ -*----------------------------------*| =========                 |                                                 |
| \      /  F ield         | OpenFOAM: The Open Source CFD Toolbox           |
|  \    /   O peration     | Version:  dev                                   |
|   \  /    A nd           | Web:      www.OpenFOAM.org                      |
|    \/     M anipulation  |                                                 |
\*---------------------------------------------------------------------------*/
FoamFile
{
    version     2.0;
    format      ascii;
    class       volScalarField;
    location    "0";
    object      theta.buoyant;
}
// * * * * * * * * * * * * * * * * * * * * * * * * * * * * * * * * * * * * * //

dimensions      [0 0 0 1 0 0 0];

internalField   nonuniform List<scalar> 
300
(
300.0
300.002596867
300.0
300.0
300.014528723
300.0
300.0
300.039829244
300.0
300.0
300.075370208
300.0
300.0
300.122114001
300.0
300.0
300.177431599
300.0
300.0
300.245060233
300.0
300.0
300.308966098
300.0
300.0
300.393785489
300.0
300.0
300.457265581
300.0
300.0
300.552322991
300.0
300.0
300.616531276
300.0
300.0
300.684163587
300.0
300.0
300.767662162
300.0
300.0
300.844731329
300.0
300.0
300.891622471
300.0
300.0
300.898602843
300.0
300.0
300.940211047
300.0
300.0
300.968932439
300.0
300.0
300.98388115
300.0
300.0
300.984597034
300.0
300.0
300.971058069
300.0
300.0
300.943680955
300.0
300.0
300.903309879
300.0
300.0
300.890780718
300.0
300.0
300.851991895
300.0
300.0
300.775699118
300.0
300.0
300.692730944
300.0
300.0
300.620529761
300.0
300.0
300.561948966
300.0
300.0
300.466628773
300.0
300.0
300.399538788
300.0
300.0
300.317800452
300.0
300.0
300.250874371
300.0
300.0
300.182881996
300.0
300.0
300.127051917
300.0
300.0
300.080624439
300.0
300.0
300.0424567
300.0
300.0
300.016646943
300.0
300.0
300.003172438
300.0
300.0
300.0
300.0
300.0
300.0
300.0
300.0
300.0
300.0
300.0
300.0
300.0
300.0
300.0
300.0
300.0
300.0
300.0
300.0
300.0
300.0
300.0
300.0
300.0
300.0
300.0
300.0
300.0
300.0
300.0
300.0
300.0
300.0
300.0
300.0
300.0
300.0
300.0
300.0
300.0
300.0
300.0
300.0
300.0
300.0
300.0
300.0
300.0
300.0
300.0
300.0
300.0
300.0
300.0
300.0
300.0
300.0
300.0
300.0
300.0
300.0
300.0
300.0
300.0
300.0
300.0
300.0
300.0
300.0
300.0
300.0
300.0
300.0
300.0
300.0
300.0
300.0
300.0
300.0
300.0
300.0
300.0
300.0
300.0
300.0
300.0
300.0
300.0
300.0
300.0
300.0
300.0
300.0
300.0
300.0
300.0
300.0
300.0
300.0
300.0
300.0
300.0
300.0
300.0
300.0
300.0
300.0
300.0
300.0
300.0
300.0
300.0
300.0
300.0
300.0
300.0
300.0
300.0
300.0
300.0
300.0
300.0
300.0
300.0
300.0
300.0
300.0
300.0
300.0
300.0
300.0
300.0
300.0
300.0
300.0
300.0
300.0
300.0
300.0
300.0
300.0
300.0
300.0
300.0
300.0
300.0
300.0
300.0
300.0
300.0
300.0
300.0
300.0
300.0
300.0
300.0
300.0
300.0
300.0
300.0
300.0
300.0
300.0
300.0
300.0
300.0
300.0
300.0
300.0
300.0
300.0
300.0
300.0
300.0
300.0
300.0
300.0
300.0
300.0
300.0
)
;

boundaryField
{
    ground
    {
        type            zeroGradient;
    }
    top
    {
        type            zeroGradient;
    }
    left
    {
        type            zeroGradient;
    }
    right
    {
        type            zeroGradient;
    }
    defaultFaces
    {
        type            empty;
    }
}


// ************************************************************************* //