/*--------------------------------*- C++ -*----------------------------------*| =========                 |                                                 |
| \      /  F ield         | OpenFOAM: The Open Source CFD Toolbox           |
|  \    /   O peration     | Version:  dev                                   |
|   \  /    A nd           | Web:      www.OpenFOAM.org                      |
|    \/     M anipulation  |                                                 |
\*---------------------------------------------------------------------------*/
FoamFile
{
    version     2.0;
    format      ascii;
    class       volScalarField;
    location    "0";
    object      thetaVar;
}
// * * * * * * * * * * * * * * * * * * * * * * * * * * * * * * * * * * * * * //

dimensions      [0 0 0 2 0 0 0];

internalField   nonuniform List<scalar> 
300
(
0.0
5.18481928439e-08
0.0
0.0
2.5998172692e-06
0.0
0.0
2.23646666148e-05
0.0
0.0
9.48258889816e-05
0.0
0.0
0.00027663589903
0.0
0.0
0.000640479667155
0.0
0.0
0.00126615234849
0.0
0.0
0.00222939948015
0.0
0.0
0.00359002211355
0.0
0.0
0.00538100642449
0.0
0.0
0.00759980833547
0.0
0.0
0.010203430398
0.0
0.0
0.0131073723074
0.0
0.0
0.016189399068
0.0
0.0
0.0192975426241
0.0
0.0
0.0222615154524
0.0
0.0
0.0249066272569
0.0
0.0
0.0270687954104
0.0
0.0
0.0286090817539
0.0
0.0
0.0294261622108
0.0
0.0
0.0294655558968
0.0
0.0
0.0287246238555
0.0
0.0
0.0272528117553
0.0
0.0
0.0251471111968
0.0
0.0
0.0225432158854
0.0
0.0
0.0196033240658
0.0
0.0
0.0165017471836
0.0
0.0
0.0134098679188
0.0
0.0
0.0104820522281
0.0
0.0
0.00784392674339
0.0
0.0
0.00558401692294
0.0
0.0
0.00374949553862
0.0
0.0
0.0023467917458
0.0
0.0
0.00134613618671
0.0
0.0
0.000689944424374
0.0
0.0
0.000303533292719
0.0
0.0
0.000106988126891
0.0
0.0
2.64610893376e-05
0.0
0.0
3.3911319021e-06
0.0
0.0
8.98592638438e-08
0.0
0.0
4.21813703591e-69
0.0
0.0
0.0
0.0
0.0
0.0
0.0
0.0
0.0
0.0
0.0
0.0
0.0
0.0
0.0
0.0
0.0
0.0
0.0
0.0
0.0
0.0
0.0
0.0
0.0
0.0
0.0
0.0
0.0
0.0
0.0
0.0
0.0
0.0
0.0
0.0
0.0
0.0
0.0
0.0
0.0
0.0
0.0
0.0
0.0
0.0
0.0
0.0
0.0
0.0
0.0
0.0
0.0
0.0
0.0
0.0
0.0
0.0
0.0
0.0
0.0
0.0
0.0
0.0
0.0
0.0
0.0
0.0
0.0
0.0
0.0
0.0
0.0
0.0
0.0
0.0
0.0
0.0
0.0
0.0
0.0
0.0
0.0
0.0
0.0
0.0
0.0
0.0
0.0
0.0
0.0
0.0
0.0
0.0
0.0
0.0
0.0
0.0
0.0
0.0
0.0
0.0
0.0
0.0
0.0
0.0
0.0
0.0
0.0
0.0
0.0
0.0
0.0
0.0
0.0
0.0
0.0
0.0
0.0
0.0
0.0
0.0
0.0
0.0
0.0
0.0
0.0
0.0
0.0
0.0
0.0
0.0
0.0
0.0
0.0
0.0
0.0
0.0
0.0
0.0
0.0
0.0
0.0
0.0
0.0
0.0
0.0
0.0
0.0
0.0
0.0
0.0
0.0
0.0
0.0
0.0
0.0
0.0
0.0
0.0
0.0
0.0
0.0
0.0
0.0
0.0
0.0
0.0
0.0
0.0
0.0
0.0
0.0
0.0
0.0
0.0
0.0
0.0
)
;

boundaryField
{
    ground
    {
        type            zeroGradient;
    }
    top
    {
        type            zeroGradient;
    }
    left
    {
        type            zeroGradient;
    }
    right
    {
        type            zeroGradient;
    }
    defaultFaces
    {
        type            empty;
    }
}


// ************************************************************************* //