/*--------------------------------*- C++ -*----------------------------------*  =========                 |
  \      /  F ield         | OpenFOAM: The Open Source CFD Toolbox
   \    /   O peration     | Website:  https://openfoam.org
    \  /    A nd           | Version:  dev
     \/     M anipulation  |
\*---------------------------------------------------------------------------*/
FoamFile
{
    version     2.0;
    format      ascii;
    class       volScalarField;
    location    "1";
    object      Exner;
}
// * * * * * * * * * * * * * * * * * * * * * * * * * * * * * * * * * * * * * //

dimensions      [0 0 0 0 0 0 0];

internalField   nonuniform List<scalar> 
100
(
0.998370603989
0.995116886169
0.991863178251
0.988609366366
0.98535557429
0.982101802013
0.978848004985
0.975594173304
0.972340410923
0.96908650499
0.965832633705
0.962578762425
0.959324802028
0.956070930751
0.952816960456
0.949562930765
0.946308920871
0.943054856527
0.939800732775
0.936546529821
0.933292346674
0.930038044719
0.92678370317
0.92352923291
0.920274797318
0.917020134014
0.913765342019
0.91051048074
0.907255371966
0.904000134525
0.900744619909
0.897488882601
0.89423278402
0.890976358864
0.887719483442
0.884462024185
0.881203872424
0.877944702094
0.874684664785
0.871424413019
0.868165310607
0.86490796613
0.861651833504
0.858396174751
0.855140931382
0.85188606968
0.848631628921
0.845377852457
0.84212481301
0.838872702675
0.835621654032
0.832371725804
0.829122735579
0.8258743131
0.822626410858
0.819378584823
0.816130686864
0.812882597788
0.809634297287
0.806385764897
0.803137163526
0.799888403845
0.79663959961
0.793390656701
0.790141624459
0.786892532512
0.783643356102
0.78039413455
0.777144858116
0.773895595922
0.770646263563
0.767396945046
0.764147481937
0.760898275684
0.757649020407
0.754399664669
0.751149982674
0.747899741447
0.744649089865
0.74139771388
0.738145756172
0.734893523671
0.731641029401
0.728388356283
0.725135608839
0.721882683175
0.718629767384
0.715376688225
0.712123569439
0.708870396193
0.705617104142
0.702363841801
0.699110520038
0.69585712402
0.692603688411
0.689350143884
0.686096614215
0.682843010283
0.679589406364
0.676335663852

)
;

boundaryField
{
    ground
    {
        type            partitionedHydrostaticExner;
        gradient        uniform 3.25373e-05;
        value           uniform 0.998370603989;
    }
    top
    {
        type            partitionedHydrostaticExner;
        gradient        uniform -3.25373e-05;
        value           uniform 0.676335663852;
    }
    left
    {
        type            partitionedHydrostaticExner;
        gradient        uniform 0;
        value           nonuniform List<scalar>
100
(
0.998370603989
0.995116886169
0.991863178251
0.988609366366
0.98535557429
0.982101802013
0.978848004985
0.975594173304
0.972340410923
0.96908650499
0.965832633705
0.962578762425
0.959324802028
0.956070930751
0.952816960456
0.949562930765
0.946308920871
0.943054856527
0.939800732775
0.936546529821
0.933292346674
0.930038044719
0.92678370317
0.92352923291
0.920274797318
0.917020134014
0.913765342019
0.91051048074
0.907255371966
0.904000134525
0.900744619909
0.897488882601
0.89423278402
0.890976358864
0.887719483442
0.884462024185
0.881203872424
0.877944702094
0.874684664785
0.871424413019
0.868165310607
0.86490796613
0.861651833504
0.858396174751
0.855140931382
0.85188606968
0.848631628921
0.845377852457
0.84212481301
0.838872702675
0.835621654032
0.832371725804
0.829122735579
0.8258743131
0.822626410858
0.819378584823
0.816130686864
0.812882597788
0.809634297287
0.806385764897
0.803137163526
0.799888403845
0.79663959961
0.793390656701
0.790141624459
0.786892532512
0.783643356102
0.78039413455
0.777144858116
0.773895595922
0.770646263563
0.767396945046
0.764147481937
0.760898275684
0.757649020407
0.754399664669
0.751149982674
0.747899741447
0.744649089865
0.74139771388
0.738145756172
0.734893523671
0.731641029401
0.728388356283
0.725135608839
0.721882683175
0.718629767384
0.715376688225
0.712123569439
0.708870396193
0.705617104142
0.702363841801
0.699110520038
0.69585712402
0.692603688411
0.689350143884
0.686096614215
0.682843010283
0.679589406364
0.676335663852

)
;
    }
    right
    {
        type            partitionedHydrostaticExner;
        gradient        uniform 0;
        value           nonuniform List<scalar>
100
(
0.998370603989
0.995116886169
0.991863178251
0.988609366366
0.98535557429
0.982101802013
0.978848004985
0.975594173304
0.972340410923
0.96908650499
0.965832633705
0.962578762425
0.959324802028
0.956070930751
0.952816960456
0.949562930765
0.946308920871
0.943054856527
0.939800732775
0.936546529821
0.933292346674
0.930038044719
0.92678370317
0.92352923291
0.920274797318
0.917020134014
0.913765342019
0.91051048074
0.907255371966
0.904000134525
0.900744619909
0.897488882601
0.89423278402
0.890976358864
0.887719483442
0.884462024185
0.881203872424
0.877944702094
0.874684664785
0.871424413019
0.868165310607
0.86490796613
0.861651833504
0.858396174751
0.855140931382
0.85188606968
0.848631628921
0.845377852457
0.84212481301
0.838872702675
0.835621654032
0.832371725804
0.829122735579
0.8258743131
0.822626410858
0.819378584823
0.816130686864
0.812882597788
0.809634297287
0.806385764897
0.803137163526
0.799888403845
0.79663959961
0.793390656701
0.790141624459
0.786892532512
0.783643356102
0.78039413455
0.777144858116
0.773895595922
0.770646263563
0.767396945046
0.764147481937
0.760898275684
0.757649020407
0.754399664669
0.751149982674
0.747899741447
0.744649089865
0.74139771388
0.738145756172
0.734893523671
0.731641029401
0.728388356283
0.725135608839
0.721882683175
0.718629767384
0.715376688225
0.712123569439
0.708870396193
0.705617104142
0.702363841801
0.699110520038
0.69585712402
0.692603688411
0.689350143884
0.686096614215
0.682843010283
0.679589406364
0.676335663852

)
;
    }
    defaultFaces
    {
        type            empty;
    }
}


// ************************************************************************* //