/*--------------------------------*- C++ -*----------------------------------*  =========                 |
  \      /  F ield         | OpenFOAM: The Open Source CFD Toolbox
   \    /   O peration     | Website:  https://openfoam.org
    \  /    A nd           | Version:  dev
     \/     M anipulation  |
\*---------------------------------------------------------------------------*/
FoamFile
{
    version     2.0;
    format      ascii;
    class       volScalarField;
    location    "1";
    object      Exner;
}
// * * * * * * * * * * * * * * * * * * * * * * * * * * * * * * * * * * * * * //

dimensions      [0 0 0 0 0 0 0];

internalField   nonuniform List<scalar> 
100
(
0.998344177296
0.995090450445
0.991836740792
0.988583067757
0.985329453145
0.982075919732
0.978822489772
0.975569183849
0.972316019914
0.96906301251
0.965810172144
0.96255750482
0.959305011763
0.956052689284
0.95280052878
0.949548516968
0.946296636201
0.943044864899
0.93979317817
0.936541548661
0.933289946029
0.930038340471
0.926786702616
0.923535002035
0.920283210764
0.917031303644
0.913779258897
0.910527058825
0.907274690387
0.904022145661
0.900769422049
0.897516522329
0.894263454512
0.891010231457
0.887756870268
0.884503391495
0.881249818098
0.877996174188
0.874742483514
0.871488767559
0.868235042321
0.864981315019
0.861727586853
0.858473857989
0.855220128538
0.851966398579
0.848712668184
0.845458937422
0.842205206368
0.838951475098
0.835697743679
0.832444012155
0.829190280548
0.825936548854
0.822682817064
0.819429085178
0.816175353219
0.81292162123
0.809667889259
0.806414157334
0.803160425451
0.799906693578
0.796652961674
0.793399229722
0.790145497742
0.786891765772
0.783638033841
0.780384301933
0.777130569995
0.773876837969
0.770623105841
0.76736937364
0.764115641403
0.760861909122
0.757608176743
0.754354444219
0.751100711564
0.747846978843
0.744593246091
0.741339513269
0.738085780326
0.734832047287
0.731578314233
0.72832458119
0.725070848099
0.72181711495
0.718563381837
0.715309648809
0.712055915809
0.708802182847
0.705548450026
0.702294717337
0.699040984728
0.695787252285
0.692533520009
0.689279787846
0.686026055873
0.682772324044
0.679518592374
0.67626486087

)
;

boundaryField
{
    ground
    {
        type            partitionedHydrostaticExner;
        gradient        uniform 3.25373e-05;
        value           uniform 0.998344177296;
    }
    top
    {
        type            partitionedHydrostaticExner;
        gradient        uniform -3.25373e-05;
        value           uniform 0.67626486087;
    }
    left
    {
        type            partitionedHydrostaticExner;
        gradient        uniform 0;
        value           nonuniform List<scalar>
100
(
0.998344177296
0.995090450445
0.991836740792
0.988583067757
0.985329453145
0.982075919732
0.978822489772
0.975569183849
0.972316019914
0.96906301251
0.965810172144
0.96255750482
0.959305011763
0.956052689284
0.95280052878
0.949548516968
0.946296636201
0.943044864899
0.93979317817
0.936541548661
0.933289946029
0.930038340471
0.926786702616
0.923535002035
0.920283210764
0.917031303644
0.913779258897
0.910527058825
0.907274690387
0.904022145661
0.900769422049
0.897516522329
0.894263454512
0.891010231457
0.887756870268
0.884503391495
0.881249818098
0.877996174188
0.874742483514
0.871488767559
0.868235042321
0.864981315019
0.861727586853
0.858473857989
0.855220128538
0.851966398579
0.848712668184
0.845458937422
0.842205206368
0.838951475098
0.835697743679
0.832444012155
0.829190280548
0.825936548854
0.822682817064
0.819429085178
0.816175353219
0.81292162123
0.809667889259
0.806414157334
0.803160425451
0.799906693578
0.796652961674
0.793399229722
0.790145497742
0.786891765772
0.783638033841
0.780384301933
0.777130569995
0.773876837969
0.770623105841
0.76736937364
0.764115641403
0.760861909122
0.757608176743
0.754354444219
0.751100711564
0.747846978843
0.744593246091
0.741339513269
0.738085780326
0.734832047287
0.731578314233
0.72832458119
0.725070848099
0.72181711495
0.718563381837
0.715309648809
0.712055915809
0.708802182847
0.705548450026
0.702294717337
0.699040984728
0.695787252285
0.692533520009
0.689279787846
0.686026055873
0.682772324044
0.679518592374
0.67626486087

)
;
    }
    right
    {
        type            partitionedHydrostaticExner;
        gradient        uniform 0;
        value           nonuniform List<scalar>
100
(
0.998344177296
0.995090450445
0.991836740792
0.988583067757
0.985329453145
0.982075919732
0.978822489772
0.975569183849
0.972316019914
0.96906301251
0.965810172144
0.96255750482
0.959305011763
0.956052689284
0.95280052878
0.949548516968
0.946296636201
0.943044864899
0.93979317817
0.936541548661
0.933289946029
0.930038340471
0.926786702616
0.923535002035
0.920283210764
0.917031303644
0.913779258897
0.910527058825
0.907274690387
0.904022145661
0.900769422049
0.897516522329
0.894263454512
0.891010231457
0.887756870268
0.884503391495
0.881249818098
0.877996174188
0.874742483514
0.871488767559
0.868235042321
0.864981315019
0.861727586853
0.858473857989
0.855220128538
0.851966398579
0.848712668184
0.845458937422
0.842205206368
0.838951475098
0.835697743679
0.832444012155
0.829190280548
0.825936548854
0.822682817064
0.819429085178
0.816175353219
0.81292162123
0.809667889259
0.806414157334
0.803160425451
0.799906693578
0.796652961674
0.793399229722
0.790145497742
0.786891765772
0.783638033841
0.780384301933
0.777130569995
0.773876837969
0.770623105841
0.76736937364
0.764115641403
0.760861909122
0.757608176743
0.754354444219
0.751100711564
0.747846978843
0.744593246091
0.741339513269
0.738085780326
0.734832047287
0.731578314233
0.72832458119
0.725070848099
0.72181711495
0.718563381837
0.715309648809
0.712055915809
0.708802182847
0.705548450026
0.702294717337
0.699040984728
0.695787252285
0.692533520009
0.689279787846
0.686026055873
0.682772324044
0.679518592374
0.67626486087

)
;
    }
    defaultFaces
    {
        type            empty;
    }
}


// ************************************************************************* //