/*--------------------------------*- C++ -*----------------------------------*  =========                 |
  \      /  F ield         | OpenFOAM: The Open Source CFD Toolbox
   \    /   O peration     | Website:  https://openfoam.org
    \  /    A nd           | Version:  dev
     \/     M anipulation  |
\*---------------------------------------------------------------------------*/
FoamFile
{
    version     2.0;
    format      ascii;
    class       volScalarField;
    location    "1";
    object      Exner;
}
// * * * * * * * * * * * * * * * * * * * * * * * * * * * * * * * * * * * * * //

dimensions      [0 0 0 0 0 0 0];

internalField   nonuniform List<scalar> 
100
(
0.998382352949
0.995128637266
0.991874774518
0.988621009816
0.985367225499
0.982113352953
0.978859411774
0.975605392171
0.972351372559
0.969097323543
0.965843235306
0.962589049036
0.959334823548
0.956080480411
0.952826039237
0.949571470617
0.946316794154
0.943062000042
0.939806941228
0.936551794183
0.933296353026
0.93004069619
0.926784735444
0.92352836295
0.920271559107
0.917014304323
0.913756471168
0.910497971431
0.907238550264
0.903978168534
0.900716483266
0.897453082994
0.894187655059
0.890919920508
0.887651677621
0.884385564083
0.881123223852
0.877863611234
0.874605764583
0.871349328418
0.868094548405
0.864841639707
0.861590767838
0.858342079623
0.85509524253
0.851850257756
0.848606176679
0.845362804113
0.842119816681
0.838876880779
0.835633995422
0.832391071475
0.829148049887
0.82590479347
0.822661331104
0.819417594337
0.816173582919
0.812929404527
0.809684990839
0.806440361004
0.803195632724
0.799950747103
0.796705733681
0.793460797815
0.790215763377
0.786970737721
0.783725877584
0.78048089901
0.777235852421
0.77399001485
0.770743437042
0.767495649975
0.764246672393
0.760996537259
0.757745561545
0.754494169799
0.751242404917
0.747990414536
0.744738247688
0.741485904375
0.738233335579
0.734980727571
0.731727952914
0.728475060614
0.725222099712
0.721968942724
0.71871585438
0.715462638595
0.712209364
0.708955952153
0.705702569738
0.70244911869
0.699195706873
0.695942177409
0.692688638149
0.68943494205
0.686181422415
0.682927736123
0.67967411847
0.676420383172

)
;

boundaryField
{
    ground
    {
        type            partitionedHydrostaticExner;
        gradient        uniform 3.25373e-05;
        value           uniform 0.998382352949;
    }
    top
    {
        type            partitionedHydrostaticExner;
        gradient        uniform -3.25373e-05;
        value           uniform 0.676420383172;
    }
    left
    {
        type            partitionedHydrostaticExner;
        gradient        uniform 0;
        value           nonuniform List<scalar>
100
(
0.998382352949
0.995128637266
0.991874774518
0.988621009816
0.985367225499
0.982113352953
0.978859411774
0.975605392171
0.972351372559
0.969097323543
0.965843235306
0.962589049036
0.959334823548
0.956080480411
0.952826039237
0.949571470617
0.946316794154
0.943062000042
0.939806941228
0.936551794183
0.933296353026
0.93004069619
0.926784735444
0.92352836295
0.920271559107
0.917014304323
0.913756471168
0.910497971431
0.907238550264
0.903978168534
0.900716483266
0.897453082994
0.894187655059
0.890919920508
0.887651677621
0.884385564083
0.881123223852
0.877863611234
0.874605764583
0.871349328418
0.868094548405
0.864841639707
0.861590767838
0.858342079623
0.85509524253
0.851850257756
0.848606176679
0.845362804113
0.842119816681
0.838876880779
0.835633995422
0.832391071475
0.829148049887
0.82590479347
0.822661331104
0.819417594337
0.816173582919
0.812929404527
0.809684990839
0.806440361004
0.803195632724
0.799950747103
0.796705733681
0.793460797815
0.790215763377
0.786970737721
0.783725877584
0.78048089901
0.777235852421
0.77399001485
0.770743437042
0.767495649975
0.764246672393
0.760996537259
0.757745561545
0.754494169799
0.751242404917
0.747990414536
0.744738247688
0.741485904375
0.738233335579
0.734980727571
0.731727952914
0.728475060614
0.725222099712
0.721968942724
0.71871585438
0.715462638595
0.712209364
0.708955952153
0.705702569738
0.70244911869
0.699195706873
0.695942177409
0.692688638149
0.68943494205
0.686181422415
0.682927736123
0.67967411847
0.676420383172

)
;
    }
    right
    {
        type            partitionedHydrostaticExner;
        gradient        uniform 0;
        value           nonuniform List<scalar>
100
(
0.998382352949
0.995128637266
0.991874774518
0.988621009816
0.985367225499
0.982113352953
0.978859411774
0.975605392171
0.972351372559
0.969097323543
0.965843235306
0.962589049036
0.959334823548
0.956080480411
0.952826039237
0.949571470617
0.946316794154
0.943062000042
0.939806941228
0.936551794183
0.933296353026
0.93004069619
0.926784735444
0.92352836295
0.920271559107
0.917014304323
0.913756471168
0.910497971431
0.907238550264
0.903978168534
0.900716483266
0.897453082994
0.894187655059
0.890919920508
0.887651677621
0.884385564083
0.881123223852
0.877863611234
0.874605764583
0.871349328418
0.868094548405
0.864841639707
0.861590767838
0.858342079623
0.85509524253
0.851850257756
0.848606176679
0.845362804113
0.842119816681
0.838876880779
0.835633995422
0.832391071475
0.829148049887
0.82590479347
0.822661331104
0.819417594337
0.816173582919
0.812929404527
0.809684990839
0.806440361004
0.803195632724
0.799950747103
0.796705733681
0.793460797815
0.790215763377
0.786970737721
0.783725877584
0.78048089901
0.777235852421
0.77399001485
0.770743437042
0.767495649975
0.764246672393
0.760996537259
0.757745561545
0.754494169799
0.751242404917
0.747990414536
0.744738247688
0.741485904375
0.738233335579
0.734980727571
0.731727952914
0.728475060614
0.725222099712
0.721968942724
0.71871585438
0.715462638595
0.712209364
0.708955952153
0.705702569738
0.70244911869
0.699195706873
0.695942177409
0.692688638149
0.68943494205
0.686181422415
0.682927736123
0.67967411847
0.676420383172

)
;
    }
    defaultFaces
    {
        type            empty;
    }
}


// ************************************************************************* //