/*--------------------------------*- C++ -*----------------------------------*  =========                 |
  \      /  F ield         | OpenFOAM: The Open Source CFD Toolbox
   \    /   O peration     | Website:  https://openfoam.org
    \  /    A nd           | Version:  dev
     \/     M anipulation  |
\*---------------------------------------------------------------------------*/
FoamFile
{
    version     2.0;
    format      ascii;
    class       volScalarField;
    location    "1";
    object      Exner;
}
// * * * * * * * * * * * * * * * * * * * * * * * * * * * * * * * * * * * * * //

dimensions      [0 0 0 0 0 0 0];

internalField   nonuniform List<scalar> 
100
(
0.998344506617
0.995090768915
0.991837033807
0.988583317393
0.985329636684
0.982076010703
0.978822458911
0.975569000399
0.972315653181
0.969062433588
0.965809355726
0.962556430984
0.95930366765
0.956051070503
0.952798640456
0.949546374312
0.946294264524
0.943042299119
0.939790461538
0.936538732027
0.933287086276
0.93003549282
0.926783923006
0.923532349624
0.920280738459
0.917029055533
0.91377726997
0.910525354112
0.907273284155
0.904021041258
0.900768612506
0.897515991589
0.894263179129
0.891010182586
0.887757015803
0.884503698198
0.881250253593
0.877996708687
0.874743091209
0.871489427766
0.86823574075
0.86498204329
0.861728339656
0.858474631244
0.855220919013
0.851967203691
0.848713485824
0.845459765832
0.842206044074
0.838952320883
0.83569859653
0.832444871195
0.829191144965
0.8259374179
0.822683690068
0.819429961536
0.816176232344
0.812922502532
0.809668772185
0.806415041429
0.803161310358
0.799907579003
0.796653847379
0.793400115522
0.790146383457
0.786892651156
0.783638918603
0.780385185857
0.777131452993
0.77387772003
0.77062398698
0.767370253901
0.76411652082
0.760862787682
0.757609054457
0.754355321174
0.751101587832
0.747847854423
0.744594121033
0.74134038774
0.738086654553
0.734832921529
0.731579188716
0.72832545606
0.725071723527
0.721817991078
0.718564258605
0.715310526078
0.712056793493
0.708803060836
0.70554932819
0.702295595608
0.699041863158
0.695788130923
0.692534398914
0.689280667153
0.686026935588
0.682773204169
0.679519472824
0.676265741496

)
;

boundaryField
{
    ground
    {
        type            partitionedHydrostaticExner;
        gradient        uniform 3.25373e-05;
        value           uniform 0.998344506617;
    }
    top
    {
        type            partitionedHydrostaticExner;
        gradient        uniform -3.25373e-05;
        value           uniform 0.676265741496;
    }
    left
    {
        type            partitionedHydrostaticExner;
        gradient        uniform 0;
        value           nonuniform List<scalar>
100
(
0.998344506617
0.995090768915
0.991837033807
0.988583317393
0.985329636684
0.982076010703
0.978822458911
0.975569000399
0.972315653181
0.969062433588
0.965809355726
0.962556430984
0.95930366765
0.956051070503
0.952798640456
0.949546374312
0.946294264524
0.943042299119
0.939790461538
0.936538732027
0.933287086276
0.93003549282
0.926783923006
0.923532349624
0.920280738459
0.917029055533
0.91377726997
0.910525354112
0.907273284155
0.904021041258
0.900768612506
0.897515991589
0.894263179129
0.891010182586
0.887757015803
0.884503698198
0.881250253593
0.877996708687
0.874743091209
0.871489427766
0.86823574075
0.86498204329
0.861728339656
0.858474631244
0.855220919013
0.851967203691
0.848713485824
0.845459765832
0.842206044074
0.838952320883
0.83569859653
0.832444871195
0.829191144965
0.8259374179
0.822683690068
0.819429961536
0.816176232344
0.812922502532
0.809668772185
0.806415041429
0.803161310358
0.799907579003
0.796653847379
0.793400115522
0.790146383457
0.786892651156
0.783638918603
0.780385185857
0.777131452993
0.77387772003
0.77062398698
0.767370253901
0.76411652082
0.760862787682
0.757609054457
0.754355321174
0.751101587832
0.747847854423
0.744594121033
0.74134038774
0.738086654553
0.734832921529
0.731579188716
0.72832545606
0.725071723527
0.721817991078
0.718564258605
0.715310526078
0.712056793493
0.708803060836
0.70554932819
0.702295595608
0.699041863158
0.695788130923
0.692534398914
0.689280667153
0.686026935588
0.682773204169
0.679519472824
0.676265741496

)
;
    }
    right
    {
        type            partitionedHydrostaticExner;
        gradient        uniform 0;
        value           nonuniform List<scalar>
100
(
0.998344506617
0.995090768915
0.991837033807
0.988583317393
0.985329636684
0.982076010703
0.978822458911
0.975569000399
0.972315653181
0.969062433588
0.965809355726
0.962556430984
0.95930366765
0.956051070503
0.952798640456
0.949546374312
0.946294264524
0.943042299119
0.939790461538
0.936538732027
0.933287086276
0.93003549282
0.926783923006
0.923532349624
0.920280738459
0.917029055533
0.91377726997
0.910525354112
0.907273284155
0.904021041258
0.900768612506
0.897515991589
0.894263179129
0.891010182586
0.887757015803
0.884503698198
0.881250253593
0.877996708687
0.874743091209
0.871489427766
0.86823574075
0.86498204329
0.861728339656
0.858474631244
0.855220919013
0.851967203691
0.848713485824
0.845459765832
0.842206044074
0.838952320883
0.83569859653
0.832444871195
0.829191144965
0.8259374179
0.822683690068
0.819429961536
0.816176232344
0.812922502532
0.809668772185
0.806415041429
0.803161310358
0.799907579003
0.796653847379
0.793400115522
0.790146383457
0.786892651156
0.783638918603
0.780385185857
0.777131452993
0.77387772003
0.77062398698
0.767370253901
0.76411652082
0.760862787682
0.757609054457
0.754355321174
0.751101587832
0.747847854423
0.744594121033
0.74134038774
0.738086654553
0.734832921529
0.731579188716
0.72832545606
0.725071723527
0.721817991078
0.718564258605
0.715310526078
0.712056793493
0.708803060836
0.70554932819
0.702295595608
0.699041863158
0.695788130923
0.692534398914
0.689280667153
0.686026935588
0.682773204169
0.679519472824
0.676265741496

)
;
    }
    defaultFaces
    {
        type            empty;
    }
}


// ************************************************************************* //