/*--------------------------------*- C++ -*----------------------------------*  =========                 |
  \      /  F ield         | OpenFOAM: The Open Source CFD Toolbox
   \    /   O peration     | Website:  https://openfoam.org
    \  /    A nd           | Version:  dev
     \/     M anipulation  |
\*---------------------------------------------------------------------------*/
FoamFile
{
    version     2.0;
    format      ascii;
    class       volScalarField;
    location    "1";
    object      Exner;
}
// * * * * * * * * * * * * * * * * * * * * * * * * * * * * * * * * * * * * * //

dimensions      [0 0 0 0 0 0 0];

internalField   nonuniform List<scalar> 
100
(
0.998350392251
0.99509657853
0.991842686374
0.988588647152
0.985334578524
0.982080245186
0.978825902061
0.975571323668
0.972316598246
0.969061647416
0.965806451619
0.962550883451
0.959295060649
0.956038993088
0.952782622078
0.949526124187
0.946269411338
0.943012522775
0.939755576352
0.936498679851
0.933241999949
0.929985742488
0.926729936629
0.923474611622
0.920219992597
0.916966314441
0.913713429607
0.910461651473
0.907210753909
0.903960991271
0.900712128395
0.897464154744
0.894217207639
0.890970963244
0.887725412104
0.884480377626
0.881235791656
0.877991409762
0.87474705711
0.871502549264
0.868257809511
0.865012349686
0.861766054968
0.858518652417
0.855270081176
0.852020128415
0.848769129337
0.845517543931
0.842265465486
0.839013122027
0.83576047463
0.832507739019
0.829254817132
0.82600186585
0.822748679301
0.819495512385
0.816242218035
0.812988855076
0.809735452909
0.806482011553
0.803228638842
0.79997507987
0.796721550316
0.793467981566
0.790214442242
0.786960844096
0.783707216551
0.780453598826
0.777199971306
0.77394633398
0.770692716276
0.767439029952
0.764185353432
0.760931657313
0.757678020023
0.75442434352
0.751170657218
0.747916961109
0.744663274812
0.741409608124
0.738155882618
0.73490220613
0.731648461021
0.728394764928
0.725141078644
0.721887353144
0.718633588429
0.715379941366
0.712126078615
0.708872392331
0.705618696249
0.702364960951
0.699111274674
0.69585754918
0.692603755063
0.689350039378
0.686096313887
0.682842558982
0.679588862906
0.675529801835

)
;

boundaryField
{
    ground
    {
        type            partitionedHydrostaticExner;
        gradient        uniform 3.25373e-05;
        value           uniform 0.998350392251;
    }
    top
    {
        type            partitionedHydrostaticExner;
        gradient        uniform -3.25373e-05;
        value           uniform 0.675529801835;
    }
    left
    {
        type            partitionedHydrostaticExner;
        gradient        uniform 0;
        value           nonuniform List<scalar>
100
(
0.998350392251
0.99509657853
0.991842686374
0.988588647152
0.985334578524
0.982080245186
0.978825902061
0.975571323668
0.972316598246
0.969061647416
0.965806451619
0.962550883451
0.959295060649
0.956038993088
0.952782622078
0.949526124187
0.946269411338
0.943012522775
0.939755576352
0.936498679851
0.933241999949
0.929985742488
0.926729936629
0.923474611622
0.920219992597
0.916966314441
0.913713429607
0.910461651473
0.907210753909
0.903960991271
0.900712128395
0.897464154744
0.894217207639
0.890970963244
0.887725412104
0.884480377626
0.881235791656
0.877991409762
0.87474705711
0.871502549264
0.868257809511
0.865012349686
0.861766054968
0.858518652417
0.855270081176
0.852020128415
0.848769129337
0.845517543931
0.842265465486
0.839013122027
0.83576047463
0.832507739019
0.829254817132
0.82600186585
0.822748679301
0.819495512385
0.816242218035
0.812988855076
0.809735452909
0.806482011553
0.803228638842
0.79997507987
0.796721550316
0.793467981566
0.790214442242
0.786960844096
0.783707216551
0.780453598826
0.777199971306
0.77394633398
0.770692716276
0.767439029952
0.764185353432
0.760931657313
0.757678020023
0.75442434352
0.751170657218
0.747916961109
0.744663274812
0.741409608124
0.738155882618
0.73490220613
0.731648461021
0.728394764928
0.725141078644
0.721887353144
0.718633588429
0.715379941366
0.712126078615
0.708872392331
0.705618696249
0.702364960951
0.699111274674
0.69585754918
0.692603755063
0.689350039378
0.686096313887
0.682842558982
0.679588862906
0.675529801835

)
;
    }
    right
    {
        type            partitionedHydrostaticExner;
        gradient        uniform 0;
        value           nonuniform List<scalar>
100
(
0.998350392251
0.99509657853
0.991842686374
0.988588647152
0.985334578524
0.982080245186
0.978825902061
0.975571323668
0.972316598246
0.969061647416
0.965806451619
0.962550883451
0.959295060649
0.956038993088
0.952782622078
0.949526124187
0.946269411338
0.943012522775
0.939755576352
0.936498679851
0.933241999949
0.929985742488
0.926729936629
0.923474611622
0.920219992597
0.916966314441
0.913713429607
0.910461651473
0.907210753909
0.903960991271
0.900712128395
0.897464154744
0.894217207639
0.890970963244
0.887725412104
0.884480377626
0.881235791656
0.877991409762
0.87474705711
0.871502549264
0.868257809511
0.865012349686
0.861766054968
0.858518652417
0.855270081176
0.852020128415
0.848769129337
0.845517543931
0.842265465486
0.839013122027
0.83576047463
0.832507739019
0.829254817132
0.82600186585
0.822748679301
0.819495512385
0.816242218035
0.812988855076
0.809735452909
0.806482011553
0.803228638842
0.79997507987
0.796721550316
0.793467981566
0.790214442242
0.786960844096
0.783707216551
0.780453598826
0.777199971306
0.77394633398
0.770692716276
0.767439029952
0.764185353432
0.760931657313
0.757678020023
0.75442434352
0.751170657218
0.747916961109
0.744663274812
0.741409608124
0.738155882618
0.73490220613
0.731648461021
0.728394764928
0.725141078644
0.721887353144
0.718633588429
0.715379941366
0.712126078615
0.708872392331
0.705618696249
0.702364960951
0.699111274674
0.69585754918
0.692603755063
0.689350039378
0.686096313887
0.682842558982
0.679588862906
0.675529801835

)
;
    }
    defaultFaces
    {
        type            empty;
    }
}


// ************************************************************************* //