/*--------------------------------*- C++ -*----------------------------------*  =========                 |
  \      /  F ield         | OpenFOAM: The Open Source CFD Toolbox
   \    /   O peration     | Website:  https://openfoam.org
    \  /    A nd           | Version:  dev
     \/     M anipulation  |
\*---------------------------------------------------------------------------*/
FoamFile
{
    version     2.0;
    format      ascii;
    class       volScalarField;
    location    "1";
    object      Exner;
}
// * * * * * * * * * * * * * * * * * * * * * * * * * * * * * * * * * * * * * //

dimensions      [0 0 0 0 0 0 0];

internalField   nonuniform List<scalar> 
100
(
0.998370619575
0.995116877692
0.991863124783
0.988609360744
0.985355585374
0.982101797561
0.978847995626
0.975594179639
0.972340347639
0.969086498161
0.965832630093
0.962578740886
0.959324829544
0.956070893835
0.952816929865
0.949562934883
0.946308905173
0.943054835992
0.939800722804
0.93654656049
0.933292342597
0.930038061717
0.926783709146
0.923529274125
0.920274745588
0.917020109755
0.913765350305
0.910510447647
0.907255378811
0.9040001174
0.900744629569
0.89748887735
0.894232810191
0.890976368278
0.887719479171
0.884462033235
0.881203851924
0.877944702823
0.87468459939
0.871424337926
0.868165295131
0.864907973825
0.861651794267
0.858396184005
0.855140939375
0.85188606262
0.848631643454
0.845377828773
0.842124796096
0.83887271001
0.835621680371
0.832371712521
0.829122680668
0.825874340405
0.822626391825
0.819378562935
0.816130657616
0.81288257343
0.809634280938
0.80638580212
0.80313717269
0.799888424641
0.796639579195
0.793390647623
0.790141637155
0.786892551464
0.783643397293
0.780394179783
0.777144906981
0.773895588285
0.770646241129
0.767396890738
0.764147568117
0.760898290928
0.757649024775
0.754399635713
0.7511499293
0.747899756729
0.744649029214
0.741397698719
0.738145808968
0.734893519271
0.731641003043
0.72838834736
0.725135578875
0.721882711589
0.718629754663
0.715376716271
0.712123604024
0.708870425088
0.705617183724
0.702363881966
0.699110525247
0.695857119051
0.692603664714
0.689350162592
0.686096612875
0.682843016132
0.679589373788
0.676335685651

)
;

boundaryField
{
    ground
    {
        type            partitionedHydrostaticExner;
        gradient        uniform 3.25373e-05;
        value           uniform 0.998370619575;
    }
    top
    {
        type            partitionedHydrostaticExner;
        gradient        uniform -3.25373e-05;
        value           uniform 0.676335685651;
    }
    left
    {
        type            partitionedHydrostaticExner;
        gradient        uniform 0;
        value           nonuniform List<scalar>
100
(
0.998370619575
0.995116877692
0.991863124783
0.988609360744
0.985355585374
0.982101797561
0.978847995626
0.975594179639
0.972340347639
0.969086498161
0.965832630093
0.962578740886
0.959324829544
0.956070893835
0.952816929865
0.949562934883
0.946308905173
0.943054835992
0.939800722804
0.93654656049
0.933292342597
0.930038061717
0.926783709146
0.923529274125
0.920274745588
0.917020109755
0.913765350305
0.910510447647
0.907255378811
0.9040001174
0.900744629569
0.89748887735
0.894232810191
0.890976368278
0.887719479171
0.884462033235
0.881203851924
0.877944702823
0.87468459939
0.871424337926
0.868165295131
0.864907973825
0.861651794267
0.858396184005
0.855140939375
0.85188606262
0.848631643454
0.845377828773
0.842124796096
0.83887271001
0.835621680371
0.832371712521
0.829122680668
0.825874340405
0.822626391825
0.819378562935
0.816130657616
0.81288257343
0.809634280938
0.80638580212
0.80313717269
0.799888424641
0.796639579195
0.793390647623
0.790141637155
0.786892551464
0.783643397293
0.780394179783
0.777144906981
0.773895588285
0.770646241129
0.767396890738
0.764147568117
0.760898290928
0.757649024775
0.754399635713
0.7511499293
0.747899756729
0.744649029214
0.741397698719
0.738145808968
0.734893519271
0.731641003043
0.72838834736
0.725135578875
0.721882711589
0.718629754663
0.715376716271
0.712123604024
0.708870425088
0.705617183724
0.702363881966
0.699110525247
0.695857119051
0.692603664714
0.689350162592
0.686096612875
0.682843016132
0.679589373788
0.676335685651

)
;
    }
    right
    {
        type            partitionedHydrostaticExner;
        gradient        uniform 0;
        value           nonuniform List<scalar>
100
(
0.998370619575
0.995116877692
0.991863124783
0.988609360744
0.985355585374
0.982101797561
0.978847995626
0.975594179639
0.972340347639
0.969086498161
0.965832630093
0.962578740886
0.959324829544
0.956070893835
0.952816929865
0.949562934883
0.946308905173
0.943054835992
0.939800722804
0.93654656049
0.933292342597
0.930038061717
0.926783709146
0.923529274125
0.920274745588
0.917020109755
0.913765350305
0.910510447647
0.907255378811
0.9040001174
0.900744629569
0.89748887735
0.894232810191
0.890976368278
0.887719479171
0.884462033235
0.881203851924
0.877944702823
0.87468459939
0.871424337926
0.868165295131
0.864907973825
0.861651794267
0.858396184005
0.855140939375
0.85188606262
0.848631643454
0.845377828773
0.842124796096
0.83887271001
0.835621680371
0.832371712521
0.829122680668
0.825874340405
0.822626391825
0.819378562935
0.816130657616
0.81288257343
0.809634280938
0.80638580212
0.80313717269
0.799888424641
0.796639579195
0.793390647623
0.790141637155
0.786892551464
0.783643397293
0.780394179783
0.777144906981
0.773895588285
0.770646241129
0.767396890738
0.764147568117
0.760898290928
0.757649024775
0.754399635713
0.7511499293
0.747899756729
0.744649029214
0.741397698719
0.738145808968
0.734893519271
0.731641003043
0.72838834736
0.725135578875
0.721882711589
0.718629754663
0.715376716271
0.712123604024
0.708870425088
0.705617183724
0.702363881966
0.699110525247
0.695857119051
0.692603664714
0.689350162592
0.686096612875
0.682843016132
0.679589373788
0.676335685651

)
;
    }
    defaultFaces
    {
        type            empty;
    }
}


// ************************************************************************* //