/*--------------------------------*- C++ -*----------------------------------*  =========                 |
  \      /  F ield         | OpenFOAM: The Open Source CFD Toolbox
   \    /   O peration     | Website:  https://openfoam.org
    \  /    A nd           | Version:  dev
     \/     M anipulation  |
\*---------------------------------------------------------------------------*/
FoamFile
{
    version     2.0;
    format      ascii;
    class       volScalarField;
    location    "1";
    object      Exner;
}
// * * * * * * * * * * * * * * * * * * * * * * * * * * * * * * * * * * * * * //

dimensions      [0 0 0 0 0 0 0];

internalField   nonuniform List<scalar> 
100
(
0.998371321073
0.995117577329
0.991863820271
0.988610051237
0.985356269118
0.982102473563
0.978848663928
0.97559483915
0.972340999329
0.969087142831
0.965833267516
0.962579372346
0.959325455168
0.956071513728
0.95281754551
0.949563547492
0.946309516745
0.943055450122
0.939801342745
0.936547188448
0.933292982068
0.930038716606
0.926784383636
0.923529974309
0.920275477827
0.917020881945
0.913766170831
0.910511327002
0.90725632866
0.904001150555
0.900745762699
0.897490126726
0.894234201085
0.890977929617
0.887721246983
0.884464065176
0.881206235691
0.877947538682
0.87468784669
0.871427608768
0.868168110338
0.864910293154
0.86165384419
0.858398080857
0.855142675507
0.851887564226
0.848632785779
0.845378452057
0.842124726787
0.83887180288
0.835619856271
0.832368998114
0.829119226876
0.825870408929
0.822622291596
0.819374558332
0.816126917647
0.812879159033
0.80963117546
0.806382933984
0.803134459116
0.799885795279
0.796636990115
0.793388076659
0.790139080079
0.786890012836
0.783640883478
0.780391698723
0.777142463597
0.77389318242
0.770643863359
0.76739452068
0.764145177459
0.760895862929
0.7576465943
0.754397332112
0.751147939275
0.747898221492
0.744648029896
0.74139727782
0.738145925356
0.734894020644
0.731641720979
0.728389195444
0.725136527636
0.721883745252
0.718630862721
0.715377887084
0.712124827242
0.708871692062
0.705618486606
0.702365215832
0.699111884049
0.695858495368
0.692605052981
0.689351559105
0.68609801721
0.682844428364
0.679590792142
0.676337107051

)
;

boundaryField
{
    ground
    {
        type            partitionedHydrostaticExner;
        gradient        uniform 3.25373e-05;
        value           uniform 0.998371321073;
    }
    top
    {
        type            partitionedHydrostaticExner;
        gradient        uniform -3.25373e-05;
        value           uniform 0.676337107051;
    }
    left
    {
        type            partitionedHydrostaticExner;
        gradient        uniform 0;
        value           nonuniform List<scalar>
100
(
0.998371321073
0.995117577329
0.991863820271
0.988610051237
0.985356269118
0.982102473563
0.978848663928
0.97559483915
0.972340999329
0.969087142831
0.965833267516
0.962579372346
0.959325455168
0.956071513728
0.95281754551
0.949563547492
0.946309516745
0.943055450122
0.939801342745
0.936547188448
0.933292982068
0.930038716606
0.926784383636
0.923529974309
0.920275477827
0.917020881945
0.913766170831
0.910511327002
0.90725632866
0.904001150555
0.900745762699
0.897490126726
0.894234201085
0.890977929617
0.887721246983
0.884464065176
0.881206235691
0.877947538682
0.87468784669
0.871427608768
0.868168110338
0.864910293154
0.86165384419
0.858398080857
0.855142675507
0.851887564226
0.848632785779
0.845378452057
0.842124726787
0.83887180288
0.835619856271
0.832368998114
0.829119226876
0.825870408929
0.822622291596
0.819374558332
0.816126917647
0.812879159033
0.80963117546
0.806382933984
0.803134459116
0.799885795279
0.796636990115
0.793388076659
0.790139080079
0.786890012836
0.783640883478
0.780391698723
0.777142463597
0.77389318242
0.770643863359
0.76739452068
0.764145177459
0.760895862929
0.7576465943
0.754397332112
0.751147939275
0.747898221492
0.744648029896
0.74139727782
0.738145925356
0.734894020644
0.731641720979
0.728389195444
0.725136527636
0.721883745252
0.718630862721
0.715377887084
0.712124827242
0.708871692062
0.705618486606
0.702365215832
0.699111884049
0.695858495368
0.692605052981
0.689351559105
0.68609801721
0.682844428364
0.679590792142
0.676337107051

)
;
    }
    right
    {
        type            partitionedHydrostaticExner;
        gradient        uniform 0;
        value           nonuniform List<scalar>
100
(
0.998371321073
0.995117577329
0.991863820271
0.988610051237
0.985356269118
0.982102473563
0.978848663928
0.97559483915
0.972340999329
0.969087142831
0.965833267516
0.962579372346
0.959325455168
0.956071513728
0.95281754551
0.949563547492
0.946309516745
0.943055450122
0.939801342745
0.936547188448
0.933292982068
0.930038716606
0.926784383636
0.923529974309
0.920275477827
0.917020881945
0.913766170831
0.910511327002
0.90725632866
0.904001150555
0.900745762699
0.897490126726
0.894234201085
0.890977929617
0.887721246983
0.884464065176
0.881206235691
0.877947538682
0.87468784669
0.871427608768
0.868168110338
0.864910293154
0.86165384419
0.858398080857
0.855142675507
0.851887564226
0.848632785779
0.845378452057
0.842124726787
0.83887180288
0.835619856271
0.832368998114
0.829119226876
0.825870408929
0.822622291596
0.819374558332
0.816126917647
0.812879159033
0.80963117546
0.806382933984
0.803134459116
0.799885795279
0.796636990115
0.793388076659
0.790139080079
0.786890012836
0.783640883478
0.780391698723
0.777142463597
0.77389318242
0.770643863359
0.76739452068
0.764145177459
0.760895862929
0.7576465943
0.754397332112
0.751147939275
0.747898221492
0.744648029896
0.74139727782
0.738145925356
0.734894020644
0.731641720979
0.728389195444
0.725136527636
0.721883745252
0.718630862721
0.715377887084
0.712124827242
0.708871692062
0.705618486606
0.702365215832
0.699111884049
0.695858495368
0.692605052981
0.689351559105
0.68609801721
0.682844428364
0.679590792142
0.676337107051

)
;
    }
    defaultFaces
    {
        type            empty;
    }
}


// ************************************************************************* //