/*--------------------------------*- C++ -*----------------------------------*| =========                 |                                                 |
| \      /  F ield         | OpenFOAM: The Open Source CFD Toolbox           |
|  \    /   O peration     | Version:  dev                                   |
|   \  /    A nd           | Web:      www.OpenFOAM.org                      |
|    \/     M anipulation  |                                                 |
\*---------------------------------------------------------------------------*/
FoamFile
{
    version     2.0;
    format      ascii;
    class       volScalarField;
    location    "0";
    object      rho.buoyant;
}
// * * * * * * * * * * * * * * * * * * * * * * * * * * * * * * * * * * * * * //

dimensions      [1 -3 0 0 0 0 0];

internalField   nonuniform List<scalar> 
100
(
1.15391168899
1.14455816083
1.13525031848
1.12598764028
1.1167702636
1.10759811956
1.09847113917
1.0893892473
1.08035237227
1.07136043019
1.06241334025
1.05351126973
1.04465389992
1.0358408742
1.02707235304
1.01834824198
1.00966902775
1.00103345459
0.992441986037
0.983894508392
0.975391620456
0.96693181436
0.958515639491
0.950143799991
0.941814486726
0.93352835127
0.925286247134
0.917085928018
0.908928136804
0.900813969701
0.892740489453
0.884710366615
0.876719797971
0.868769890472
0.860862850869
0.852992688158
0.845164698593
0.837365274614
0.829567627711
0.821708162554
0.813583574332
0.805580780092
0.797909410045
0.790357503733
0.782985009419
0.775664520337
0.768283822879
0.760886437378
0.753623037292
0.746357503909
0.739080973532
0.731935625935
0.72485935653
0.717858977671
0.710932668388
0.704065068054
0.697202748251
0.690398617206
0.683566904069
0.676843072031
0.670006763189
0.663234209529
0.656494879257
0.649829005352
0.643145996224
0.636536635454
0.629916133283
0.62335822569
0.616806319001
0.610293100085
0.603799973488
0.597347848024
0.590892750455
0.584528429517
0.578228117603
0.572044944075
0.566122197042
0.560294711891
0.554603228759
0.548933116088
0.543284635406
0.537571209146
0.53174342574
0.525880697752
0.520043047333
0.514247098794
0.508489670254
0.502770720191
0.497090212729
0.491445154431
0.485841470602
0.480276076839
0.474748921663
0.469259949083
0.463809092057
0.458394946225
0.453018866143
0.447681958308
0.442382859051
0.437121475807
)
;

boundaryField
{
    ground
    {
        type            zeroGradient;
    }
    top
    {
        type            zeroGradient;
    }
    left
    {
        type            zeroGradient;
    }
    right
    {
        type            zeroGradient;
    }
    defaultFaces
    {
        type            empty;
    }
}


// ************************************************************************* //