/*--------------------------------*- C++ -*----------------------------------*| =========                 |                                                 |
| \      /  F ield         | OpenFOAM: The Open Source CFD Toolbox           |
|  \    /   O peration     | Version:  dev                                   |
|   \  /    A nd           | Web:      www.OpenFOAM.org                      |
|    \/     M anipulation  |                                                 |
\*---------------------------------------------------------------------------*/
FoamFile
{
    version     2.0;
    format      ascii;
    class       volScalarField;
    location    "0";
    object      rho.stable;
}
// * * * * * * * * * * * * * * * * * * * * * * * * * * * * * * * * * * * * * //

dimensions      [1 -3 0 0 0 0 0];

internalField   nonuniform List<scalar> 
100
(
1.15384593489
1.14451702903
1.13520933442
1.12594704357
1.11673035882
1.10755874038
1.09843163255
1.08934871542
1.08030988128
1.0713151476
1.06236340543
1.0534580087
1.04459651121
1.03577955996
1.02700766031
1.01828102696
1.00959988405
1.00096440358
0.99237473576
0.983830948893
0.975332910756
0.966880575214
0.958473963794
0.950112748413
0.941796655996
0.933525324916
0.925298354013
0.917115303807
0.908975695681
0.900879058377
0.892824937855
0.884812920796
0.876842673469
0.868913885259
0.861026549111
0.853180977528
0.845377651065
0.837617035059
0.829899639272
0.822224946808
0.814592561079
0.807002841508
0.799455892905
0.7919510582
0.784488616415
0.777068704426
0.769690655718
0.762354835029
0.75506104656
0.747809084723
0.740599310736
0.733431022114
0.726304566245
0.719219679731
0.712176351364
0.705174522596
0.698214025156
0.691294904922
0.684416928118
0.677580171942
0.670784426734
0.66402970336
0.657315886471
0.650642847978
0.644010608542
0.637418909014
0.630867901603
0.624357319343
0.617887162279
0.611457310487
0.60506763107
0.598718222031
0.592408829385
0.586139373086
0.579909924078
0.573720247669
0.567570322554
0.561460021117
0.555389299754
0.54935806422
0.543366251637
0.53741370134
0.531500410233
0.525626262329
0.519791171472
0.513995052415
0.508237804782
0.502519361335
0.496839615266
0.491198482635
0.485595881527
0.480031725554
0.47450593003
0.469018411801
0.463569081632
0.458157853093
0.452784633663
0.4474493321
0.442151845542
0.436895768784
)
;

boundaryField
{
    ground
    {
        type            zeroGradient;
    }
    top
    {
        type            zeroGradient;
    }
    left
    {
        type            zeroGradient;
    }
    right
    {
        type            zeroGradient;
    }
    defaultFaces
    {
        type            empty;
    }
}


// ************************************************************************* //