/*--------------------------------*- C++ -*----------------------------------*| =========                 |                                                 |
| \      /  F ield         | OpenFOAM: The Open Source CFD Toolbox           |
|  \    /   O peration     | Version:  dev                                   |
|   \  /    A nd           | Web:      www.OpenFOAM.org                      |
|    \/     M anipulation  |                                                 |
\*---------------------------------------------------------------------------*/
FoamFile
{
    version     2.0;
    format      ascii;
    class       volScalarField;
    location    "0";
    object      rho.stable;
}
// * * * * * * * * * * * * * * * * * * * * * * * * * * * * * * * * * * * * * //

dimensions      [1 -3 0 0 0 0 0];

internalField   nonuniform List<scalar> 
100
(
1.15386303082
1.1445084913
1.13520125112
1.12593906468
1.11672214532
1.10755074353
1.09842421405
1.08934126495
1.0803032559
1.07131098686
1.06236314239
1.05345926523
1.04459990837
1.03578388277
1.02701248568
1.01828368957
1.00959864538
1.00095677328
0.992356544604
0.983797508667
0.975281272405
0.966809838035
0.958384485808
0.950005664092
0.941671903884
0.9333811141
0.925131426667
0.916926453333
0.908769173333
0.900660466667
0.8926014
0.884592546667
0.876634426667
0.868726933333
0.86086805471
0.853046665717
0.845262519552
0.837528592231
0.829850900482
0.822219285736
0.814620642026
0.807053988926
0.799520501366
0.792023374776
0.784566825995
0.777151686424
0.769778095192
0.762446166093
0.755155747736
0.747907084481
0.740699897104
0.733534337323
0.726410299059
0.719327687867
0.71228638057
0.705286374483
0.698327550327
0.691409891931
0.684533395099
0.677697951405
0.670903642517
0.66414992329
0.657437121926
0.650764998484
0.644133529439
0.637542656929
0.630992371903
0.624482373991
0.618012662801
0.611583365803
0.605194222179
0.598845096042
0.592536049818
0.586267023935
0.58003780652
0.573848370076
0.567698537825
0.5615885305
0.555517930359
0.549486816495
0.543494933758
0.537542328868
0.531628784626
0.525754438889
0.51991902492
0.514122561069
0.508364997966
0.502646038723
0.49696584685
0.491324237619
0.485721175939
0.480156474053
0.474630248746
0.469142212048
0.46369217271
0.458280275531
0.452906508785
0.447570590306
0.442272552579
0.437012400696
)
;

boundaryField
{
    ground
    {
        type            zeroGradient;
    }
    top
    {
        type            zeroGradient;
    }
    left
    {
        type            zeroGradient;
    }
    right
    {
        type            zeroGradient;
    }
    defaultFaces
    {
        type            empty;
    }
}


// ************************************************************************* //