/*--------------------------------*- C++ -*----------------------------------*| =========                 |                                                 |
| \      /  F ield         | OpenFOAM: The Open Source CFD Toolbox           |
|  \    /   O peration     | Version:  dev                                   |
|   \  /    A nd           | Web:      www.OpenFOAM.org                      |
|    \/     M anipulation  |                                                 |
\*---------------------------------------------------------------------------*/
FoamFile
{
    version     2.0;
    format      ascii;
    class       volScalarField;
    location    "0";
    object      rho.buoyant;
}
// * * * * * * * * * * * * * * * * * * * * * * * * * * * * * * * * * * * * * //

dimensions      [1 -3 0 0 0 0 0];

internalField   nonuniform List<scalar> 
100
(
1.15386363792
1.14450898054
1.13519835021
1.12592991232
1.11670227394
1.10751351546
1.09836396654
1.08925156532
1.0801751195
1.07113261159
1.06211815961
1.0531355605
1.04418120381
1.0352606716
1.02637085741
1.0175144106
1.00869137539
0.999900826098
0.991142346008
0.982415968948
0.973727090415
0.965077504116
0.956467817036
0.947897345854
0.939365563285
0.930873715942
0.922423888889
0.91401937037
0.905662074074
0.897352740741
0.889093259259
0.880885740741
0.872733851852
0.864643111111
0.85662024817
0.848661037777
0.840762111033
0.832954991515
0.825325053752
0.817910160219
0.810662992058
0.803619429714
0.796849162597
0.790256885841
0.783668494272
0.776908099175
0.769869143506
0.762619109565
0.755328189862
0.748070707946
0.740854771106
0.733680555664
0.726548231754
0.719457394549
0.712408478603
0.705401366593
0.698435783827
0.691511659086
0.684628987682
0.677787674693
0.670987807036
0.664229041857
0.65751131664
0.65083456483
0.6441987268
0.63760358949
0.631049328814
0.624535642517
0.618062464499
0.611629701573
0.605237175066
0.598885140205
0.5925730251
0.586301161167
0.580069256961
0.573877264016
0.567725046444
0.561612658938
0.555539847564
0.549506719454
0.543513090509
0.537558767877
0.531643733581
0.52576788147
0.519931185386
0.51413352545
0.508374831515
0.502654891717
0.496973736313
0.491331215949
0.485727307204
0.480161844827
0.474634907216
0.469146173884
0.463695483645
0.458282966035
0.452908593023
0.447572058625
0.44227342849
0.437012688436
)
;

boundaryField
{
    ground
    {
        type            zeroGradient;
    }
    top
    {
        type            zeroGradient;
    }
    left
    {
        type            zeroGradient;
    }
    right
    {
        type            zeroGradient;
    }
    defaultFaces
    {
        type            empty;
    }
}


// ************************************************************************* //