/*--------------------------------*- C++ -*----------------------------------*| =========                 |                                                 |
| \      /  F ield         | OpenFOAM: The Open Source CFD Toolbox           |
|  \    /   O peration     | Version:  dev                                   |
|   \  /    A nd           | Web:      www.OpenFOAM.org                      |
|    \/     M anipulation  |                                                 |
\*---------------------------------------------------------------------------*/
FoamFile
{
    version     2.0;
    format      ascii;
    class       volScalarField;
    location    "0";
    object      rho.stable;
}
// * * * * * * * * * * * * * * * * * * * * * * * * * * * * * * * * * * * * * //

dimensions      [1 -3 0 0 0 0 0];

internalField   nonuniform List<scalar> 
100
(
1.1538449606
1.14451792957
1.1352100638
1.12594796862
1.11673129956
1.10755942681
1.09843184498
1.08934832908
1.08030884722
1.07131348344
1.0623610417
1.05345514949
1.04459369697
1.03577675943
1.02700513486
1.01827903048
1.00959865204
1.00096413858
0.992375558024
0.983832951931
0.975336115316
0.96688502703
0.958479423252
0.950119028108
0.941803502737
0.933532453742
0.925305452962
0.917122082705
0.908981893495
0.900884451399
0.89282937696
0.884816324095
0.876845054898
0.868915205097
0.861027090873
0.853180871452
0.84537771258
0.837617132555
0.829899253543
0.822224515364
0.814592412782
0.807002543397
0.799455326685
0.791950741578
0.784488164996
0.777068019604
0.769690038641
0.762354063464
0.755060420557
0.747808443802
0.740598433785
0.733430203078
0.726303641599
0.719218814183
0.712175393467
0.705173616933
0.69821302998
0.691293959377
0.684415913536
0.677579215615
0.670783408944
0.664028739885
0.657314855092
0.650641857662
0.644009582597
0.637417914569
0.630866848527
0.624356226654
0.61788611232
0.61145629455
0.605066625699
0.598717209174
0.592407834189
0.586138402112
0.579908986849
0.573719332165
0.567569421699
0.561459147115
0.555388456167
0.549357249465
0.543365447918
0.537412910255
0.531499652289
0.525625519264
0.519790436815
0.51399431592
0.508237059373
0.502518637187
0.496838901393
0.491197782017
0.485595200212
0.480031065924
0.474505285303
0.469017777694
0.463568453114
0.458157218668
0.45278398399
0.447448678479
0.442151195093
0.436894938368
)
;

boundaryField
{
    ground
    {
        type            zeroGradient;
    }
    top
    {
        type            zeroGradient;
    }
    left
    {
        type            zeroGradient;
    }
    right
    {
        type            zeroGradient;
    }
    defaultFaces
    {
        type            empty;
    }
}


// ************************************************************************* //