/*--------------------------------*- C++ -*----------------------------------*| =========                 |                                                 |
| \      /  F ield         | OpenFOAM: The Open Source CFD Toolbox           |
|  \    /   O peration     | Version:  dev                                   |
|   \  /    A nd           | Web:      www.OpenFOAM.org                      |
|    \/     M anipulation  |                                                 |
\*---------------------------------------------------------------------------*/
FoamFile
{
    version     2.0;
    format      ascii;
    class       volScalarField;
    location    "0";
    object      rho.buoyant;
}
// * * * * * * * * * * * * * * * * * * * * * * * * * * * * * * * * * * * * * //

dimensions      [1 -3 0 0 0 0 0];

internalField   nonuniform List<scalar> 
100
(
1.15392166627
1.14456849047
1.13526077545
1.12599841169
1.1167812964
1.10760932988
1.09848246955
1.08940069044
1.0803639144
1.07137205649
1.06242502948
1.05352273526
1.04466509085
1.03585201208
1.02708341463
1.01835922829
1.00967936943
1.00104374102
0.992452246882
0.983904784541
0.975401237345
0.966941478163
0.95852535707
0.950152712253
0.941823391744
0.933537218529
0.925294006007
0.917093547153
0.908935606131
0.900819913956
0.892746136684
0.884713928128
0.876722858514
0.868772442632
0.860862151044
0.852990930602
0.845157249283
0.83735035978
0.829519014768
0.821544982515
0.813364377788
0.805471989278
0.797849202289
0.790398126944
0.783025087156
0.775613150896
0.768210132991
0.760891324934
0.753538592735
0.746300231773
0.739128924389
0.732023071813
0.724978373422
0.717990281366
0.711070122545
0.704207911263
0.697346599668
0.690471657167
0.683602095591
0.676752647241
0.669978199751
0.663207749592
0.65645410045
0.649778647232
0.643083835198
0.636458705816
0.629830858945
0.623256040024
0.616695313155
0.610160207397
0.603663145127
0.597189281593
0.590765696617
0.584427738185
0.578229447561
0.572226189952
0.566387501351
0.56063651521
0.554951702901
0.549280833561
0.543534593953
0.537670442687
0.53176766315
0.525893206465
0.5200571755
0.514259815467
0.508500903732
0.50278008519
0.497097066174
0.491451558922
0.485843249707
0.48027178012
0.474736544226
0.469237363054
0.463775202759
0.458350857925
0.452964722809
0.447616406576
0.442302939378
0.43702347781
)
;

boundaryField
{
    ground
    {
        type            zeroGradient;
    }
    top
    {
        type            zeroGradient;
    }
    left
    {
        type            zeroGradient;
    }
    right
    {
        type            zeroGradient;
    }
    defaultFaces
    {
        type            empty;
    }
}


// ************************************************************************* //