/*--------------------------------*- C++ -*----------------------------------*| =========                 |                                                 |
| \      /  F ield         | OpenFOAM: The Open Source CFD Toolbox           |
|  \    /   O peration     | Version:  dev                                   |
|   \  /    A nd           | Web:      www.OpenFOAM.org                      |
|    \/     M anipulation  |                                                 |
\*---------------------------------------------------------------------------*/
FoamFile
{
    version     2.0;
    format      ascii;
    class       volScalarField;
    location    "0";
    object      rho.buoyant;
}
// * * * * * * * * * * * * * * * * * * * * * * * * * * * * * * * * * * * * * //

dimensions      [1 -3 0 0 0 0 0];

internalField   nonuniform List<scalar> 
100
(
1.15392236586
1.14456849594
1.13526115937
1.12599774029
1.1167815201
1.10760911468
1.09848277737
1.08940096056
1.08036418678
1.07137192099
1.06242546284
1.05352269934
1.0446652403
1.03585213116
1.02708351869
1.01835943897
1.00967926737
1.00104386591
0.992452233704
0.983904812288
0.97540127744
0.966941514121
0.958525372191
0.950152708897
0.941823453957
0.93353718887
0.925293978781
0.917093517225
0.90893559796
0.900819916789
0.892746081708
0.884713834586
0.876722871557
0.868772339939
0.860862061766
0.852990824487
0.845157134911
0.837350209325
0.829518921481
0.821544878371
0.813364378471
0.805471953344
0.797849182193
0.790398106365
0.783025075861
0.775613205607
0.768210143684
0.760891284815
0.753538608756
0.746300209634
0.739128813044
0.732023077633
0.724978381257
0.717990273539
0.711070142157
0.704207864125
0.697346700967
0.690471672594
0.683602030184
0.67675264463
0.669978213015
0.66320777193
0.656454140351
0.649778729736
0.643083872727
0.636458743242
0.629830849057
0.623256033166
0.616695176867
0.610160171213
0.603662956423
0.597189238188
0.590765726021
0.584427656106
0.578229462364
0.572226110893
0.566387441482
0.560636505904
0.554951745356
0.549280847617
0.543534643888
0.537670565427
0.531767741257
0.525893304903
0.520057170714
0.514259792449
0.508500958484
0.502780137504
0.49709700668
0.49145157894
0.485843219305
0.480271719473
0.474736531295
0.469237400428
0.463775183826
0.458350781003
0.452964731134
0.447616448123
0.442302960673
0.437023504143
)
;

boundaryField
{
    ground
    {
        type            zeroGradient;
    }
    top
    {
        type            zeroGradient;
    }
    left
    {
        type            zeroGradient;
    }
    right
    {
        type            zeroGradient;
    }
    defaultFaces
    {
        type            empty;
    }
}


// ************************************************************************* //