/*--------------------------------*- C++ -*----------------------------------*| =========                 |                                                 |
| \      /  F ield         | OpenFOAM: The Open Source CFD Toolbox           |
|  \    /   O peration     | Version:  dev                                   |
|   \  /    A nd           | Web:      www.OpenFOAM.org                      |
|    \/     M anipulation  |                                                 |
\*---------------------------------------------------------------------------*/
FoamFile
{
    version     2.0;
    format      ascii;
    class       volScalarField;
    location    "0";
    object      rho.stable;
}
// * * * * * * * * * * * * * * * * * * * * * * * * * * * * * * * * * * * * * //

dimensions      [1 -3 0 0 0 0 0];

internalField   nonuniform List<scalar> 
100
(
1.15392199072
1.14456764485
1.13525964593
1.12599576742
1.1167796496
1.1076079066
1.09848107865
1.0893998961
1.08036289522
1.07137145472
1.06242676235
1.053524333
1.04466837785
1.03585600469
1.02708827676
1.01836567471
1.00968696674
1.0010534117
0.992463335099
0.983917989251
0.975416652049
0.966959399697
0.958546110698
0.950176653872
0.941851082463
0.933569155442
0.925330879092
0.917136168755
0.90898474654
0.90087674294
0.892811784076
0.884789891167
0.876811026958
0.868874831414
0.860981273345
0.853130164146
0.845320817313
0.83755260454
0.8298224783
0.822119144857
0.814460955987
0.806853563654
0.799309736063
0.791785245649
0.784267352678
0.776838243893
0.769468799139
0.762117975836
0.754847487865
0.747587674959
0.740375251488
0.733212337465
0.726101693592
0.719043132637
0.712018914139
0.705021624625
0.698076115059
0.69118750897
0.68435054188
0.677546294326
0.670743901827
0.663996765517
0.657300213793
0.650615975835
0.644004034014
0.637408953422
0.630876362416
0.624365225942
0.617912124654
0.611486883657
0.605105813066
0.598764081089
0.592459488241
0.586193854613
0.579967148924
0.573779947108
0.567632177086
0.561523730478
0.555454631646
0.549424790347
0.543434301597
0.537482924722
0.531570523608
0.525697267081
0.519862879812
0.514067247879
0.508310612004
0.502592484142
0.496913114925
0.491272363885
0.485670106236
0.480106318011
0.474580962935
0.469093958895
0.46364534088
0.458235168709
0.452863717268
0.447532376292
0.442245533465
0.437003101275
)
;

boundaryField
{
    ground
    {
        type            zeroGradient;
    }
    top
    {
        type            zeroGradient;
    }
    left
    {
        type            zeroGradient;
    }
    right
    {
        type            zeroGradient;
    }
    defaultFaces
    {
        type            empty;
    }
}


// ************************************************************************* //