/*--------------------------------*- C++ -*----------------------------------*| =========                 |                                                 |
| \      /  F ield         | OpenFOAM: The Open Source CFD Toolbox           |
|  \    /   O peration     | Version:  dev                                   |
|   \  /    A nd           | Web:      www.OpenFOAM.org                      |
|    \/     M anipulation  |                                                 |
\*---------------------------------------------------------------------------*/
FoamFile
{
    version     2.0;
    format      ascii;
    class       volScalarField;
    location    "0";
    object      rho.stable;
}
// * * * * * * * * * * * * * * * * * * * * * * * * * * * * * * * * * * * * * //

dimensions      [1 -3 0 0 0 0 0];

internalField   nonuniform List<scalar> 
100
(
1.15392897747
1.14457542007
1.13526717287
1.12600461818
1.11678745821
1.10761561672
1.09848901668
1.08940758226
1.08037124081
1.07137991808
1.06243353641
1.05353176256
1.04467476843
1.03586274441
1.02709536121
1.01837254314
1.00969361465
1.00105967628
0.992470075069
0.983924731548
0.9754228396
0.966965727958
0.958552631745
0.950182605689
0.941857237152
0.933575636549
0.925336644289
0.917142232269
0.90899133024
0.90088244817
0.892818149443
0.884795350454
0.876817195468
0.868882046542
0.860987275992
0.853137425725
0.845326741353
0.837561138278
0.82983622745
0.822131394419
0.814474993003
0.806863506937
0.79930537816
0.791846010375
0.784318521436
0.776840784504
0.769468913417
0.762152487363
0.754833409021
0.747584349753
0.740411230221
0.733230145759
0.7261267145
0.719048696817
0.712012660329
0.705018638434
0.698086359785
0.691181685166
0.684329668471
0.677476534083
0.67074710068
0.664007670581
0.657308960157
0.650623515247
0.644009966657
0.637409935668
0.630879627576
0.624365774874
0.617915240449
0.611487035859
0.605100484524
0.598766077215
0.592461519176
0.586197929368
0.579971996341
0.573785522588
0.567637542595
0.561529850566
0.555460458045
0.549431316991
0.543441378304
0.537489457789
0.531577672441
0.525704866298
0.519869821771
0.514074713597
0.508318354034
0.502600661925
0.496921557419
0.491279816784
0.485677638464
0.480113802271
0.474588219901
0.469100803767
0.463651467923
0.458239577858
0.452865588805
0.44752997888
0.442232100126
0.436971863914
)
;

boundaryField
{
    ground
    {
        type            zeroGradient;
    }
    top
    {
        type            zeroGradient;
    }
    left
    {
        type            zeroGradient;
    }
    right
    {
        type            zeroGradient;
    }
    defaultFaces
    {
        type            empty;
    }
}


// ************************************************************************* //