/*--------------------------------*- C++ -*----------------------------------*| =========                 |                                                 |
| \      /  F ield         | OpenFOAM: The Open Source CFD Toolbox           |
|  \    /   O peration     | Version:  dev                                   |
|   \  /    A nd           | Web:      www.OpenFOAM.org                      |
|    \/     M anipulation  |                                                 |
\*---------------------------------------------------------------------------*/
FoamFile
{
    version     2.0;
    format      ascii;
    class       volScalarField;
    location    "0";
    object      rho.stable;
}
// * * * * * * * * * * * * * * * * * * * * * * * * * * * * * * * * * * * * * //

dimensions      [1 -3 0 0 0 0 0];

internalField   nonuniform List<scalar> 
100
(
1.15392147756
1.14456739046
1.13525942173
1.12599691694
1.11677977777
1.10760794367
1.09848136351
1.08939994941
1.08036362249
1.0713723055
1.06242592355
1.05352442496
1.04466766496
1.03585563944
1.02708824083
1.01836538926
1.00968703488
1.00105301131
0.992463324577
0.983917861601
0.975416496798
0.966959286784
0.958546000382
0.950176557958
0.941851000635
0.933569102924
0.925330676619
0.917136040881
0.908984788652
0.900876584698
0.892811682205
0.884789649932
0.876810910628
0.868874941393
0.860981196973
0.853130669663
0.845320702029
0.83755263858
0.829822896229
0.822121317513
0.814457684202
0.806864499982
0.799328458439
0.791789778253
0.784287793176
0.776850668208
0.769451029927
0.762131155134
0.754832605154
0.747583833847
0.74038343204
0.733226218973
0.726113504551
0.719043600281
0.712015050416
0.705030046619
0.698085026546
0.691187681951
0.684346296145
0.677540872099
0.670748687962
0.664004719394
0.657292638262
0.650624424807
0.643992709315
0.637414511933
0.630864980771
0.624370374052
0.617902823946
0.611484839286
0.605105592418
0.598762495035
0.592459566232
0.586193873216
0.579967067989
0.573779949695
0.567632229264
0.561523738101
0.555454679669
0.549424801741
0.543434351804
0.537482944316
0.531570499959
0.525697287495
0.519862893845
0.514067499489
0.508310590529
0.502592522639
0.496913071176
0.49127215442
0.48566965818
0.480105586461
0.474579768032
0.46909215242
0.463642654695
0.458231189348
0.452857666894
0.447522001481
0.442224074963
0.436963426672
)
;

boundaryField
{
    ground
    {
        type            zeroGradient;
    }
    top
    {
        type            zeroGradient;
    }
    left
    {
        type            zeroGradient;
    }
    right
    {
        type            zeroGradient;
    }
    defaultFaces
    {
        type            empty;
    }
}


// ************************************************************************* //