/*--------------------------------*- C++ -*----------------------------------*| =========                 |                                                 |
| \      /  F ield         | OpenFOAM: The Open Source CFD Toolbox           |
|  \    /   O peration     | Version:  dev                                   |
|   \  /    A nd           | Web:      www.OpenFOAM.org                      |
|    \/     M anipulation  |                                                 |
\*---------------------------------------------------------------------------*/
FoamFile
{
    version     2.0;
    format      ascii;
    class       volScalarField;
    location    "0";
    object      rho.buoyant;
}
// * * * * * * * * * * * * * * * * * * * * * * * * * * * * * * * * * * * * * //

dimensions      [1 -3 0 0 0 0 0];

internalField   nonuniform List<scalar> 
100
(
1.15392147756
1.14456915282
1.13526103719
1.12599832262
1.11678099156
1.10760892968
1.09848199748
1.08940015779
1.08036333323
1.07137144683
1.06242441901
1.05352210945
1.04466458007
1.0358515965
1.02708311839
1.01835905948
1.00967927198
1.00104379948
0.992452389679
0.983904989627
0.975401545435
0.966941721622
0.958525604688
0.950153026034
0.941823655164
0.933537501487
0.925294490868
0.917093876559
0.908935816592
0.900820309154
0.892746586607
0.884714678071
0.876723452203
0.868772887052
0.860862860753
0.852990963208
0.845158234632
0.837351235231
0.829519655056
0.821543002037
0.813380175915
0.805461450717
0.797824360826
0.790391310863
0.782996047647
0.775598529107
0.768261425707
0.760869750393
0.753573139518
0.746320075416
0.739126579973
0.732008840962
0.724965224514
0.717994079177
0.711077943011
0.704199301167
0.697329472019
0.690474136134
0.68361372363
0.676767162316
0.66997307165
0.663198850455
0.656470027158
0.649769050237
0.64310621055
0.636455307104
0.629851180288
0.62325952874
0.616704737135
0.610177707041
0.603668059484
0.597190892138
0.590770510963
0.584430818777
0.578244880007
0.572231039215
0.566387028833
0.560638407513
0.55495255628
0.549281722984
0.543534325702
0.537670137115
0.531767103249
0.525893088347
0.520057181404
0.514260334075
0.508501480144
0.502781567321
0.497100264555
0.491457516104
0.485853149242
0.480287350826
0.474759784899
0.469270492157
0.463819384944
0.458406370772
0.453031366314
0.447694280695
0.44239494385
0.437132460514
)
;

boundaryField
{
    ground
    {
        type            zeroGradient;
    }
    top
    {
        type            zeroGradient;
    }
    left
    {
        type            zeroGradient;
    }
    right
    {
        type            zeroGradient;
    }
    defaultFaces
    {
        type            empty;
    }
}


// ************************************************************************* //