/*--------------------------------*- C++ -*----------------------------------*| =========                 |                                                 |
| \      /  F ield         | OpenFOAM: The Open Source CFD Toolbox           |
|  \    /   O peration     | Version:  dev                                   |
|   \  /    A nd           | Web:      www.OpenFOAM.org                      |
|    \/     M anipulation  |                                                 |
\*---------------------------------------------------------------------------*/
FoamFile
{
    version     2.0;
    format      ascii;
    class       volScalarField;
    location    "0";
    object      rho.stable;
}
// * * * * * * * * * * * * * * * * * * * * * * * * * * * * * * * * * * * * * //

dimensions      [1 -3 0 0 0 0 0];

internalField   nonuniform List<scalar> 
100
(
1.153921289
1.14456740098
1.13525909859
1.12599635067
1.11677911426
1.10760732324
1.09848083696
1.08939951778
1.08036327576
1.07137203234
1.0624257137
1.0535242472
1.04466756003
1.03585557853
1.02708822473
1.01836541385
1.00968706343
1.00105309306
0.99246342188
0.983917968743
0.975416652165
0.966959389498
0.958546098947
0.950176695656
0.94185109034
0.933569192849
0.925330905949
0.917136126757
0.908984747498
0.900876663868
0.89281176664
0.884789929414
0.876811007065
0.868874845573
0.86098124226
0.853130114775
0.845320754136
0.837552489988
0.829822382966
0.822119085193
0.814460891513
0.80685349154
0.799309656282
0.791785206167
0.784267385684
0.776838214311
0.769468981492
0.76211798556
0.754847544518
0.747587737856
0.740375177409
0.73321228249
0.726101589471
0.71904307177
0.712018884956
0.705021623035
0.698076007043
0.691187474747
0.68435054046
0.677546278433
0.670743965013
0.663996802381
0.657300318828
0.65061602016
0.644004015645
0.63740901176
0.630876399079
0.62436529978
0.617911996607
0.611486859816
0.605105789175
0.598764086765
0.592459502206
0.58619380502
0.57996717099
0.573779921605
0.567632103418
0.561523695494
0.555454634309
0.549424860031
0.543434308125
0.537482900211
0.531570567262
0.525697240913
0.519862846891
0.514067307681
0.508310554061
0.502592524254
0.496913156085
0.491272383212
0.48567013641
0.480106355713
0.474580978127
0.469093960958
0.463645313916
0.458235135923
0.452863749713
0.447532353279
0.442245520133
0.437003083502
)
;

boundaryField
{
    ground
    {
        type            zeroGradient;
    }
    top
    {
        type            zeroGradient;
    }
    left
    {
        type            zeroGradient;
    }
    right
    {
        type            zeroGradient;
    }
    defaultFaces
    {
        type            empty;
    }
}


// ************************************************************************* //