/*--------------------------------*- C++ -*----------------------------------*| =========                 |                                                 |
| \      /  F ield         | OpenFOAM: The Open Source CFD Toolbox           |
|  \    /   O peration     | Version:  dev                                   |
|   \  /    A nd           | Web:      www.OpenFOAM.org                      |
|    \/     M anipulation  |                                                 |
\*---------------------------------------------------------------------------*/
FoamFile
{
    version     2.0;
    format      ascii;
    class       volScalarField;
    location    "0";
    object      rho.buoyant;
}
// * * * * * * * * * * * * * * * * * * * * * * * * * * * * * * * * * * * * * //

dimensions      [1 -3 0 0 0 0 0];

internalField   nonuniform List<scalar> 
100
(
1.1538449606
1.14425842423
1.13486325195
1.12544754881
1.11601055376
1.10656246188
1.09711422288
1.08767629342
1.0782596073
1.06887539294
1.05952252781
1.0502449853
1.0410322015
1.03189025007
1.02283213393
1.01386547454
1.00499660611
0.996230433176
0.987570326395
0.979016972789
0.970578062839
0.962236927784
0.954002675569
0.945868278231
0.937826645934
0.929870750373
0.921992372827
0.914182363252
0.906430926504
0.898727866983
0.891062830694
0.88342553485
0.875808258325
0.868208372934
0.860587082048
0.852967548275
0.845318811746
0.83765758265
0.829989961052
0.822330470055
0.814695426897
0.807099598427
0.799547118509
0.792038148222
0.784571017536
0.777146888111
0.769765307735
0.76242586094
0.755129378268
0.747874485301
0.740661814938
0.733491120365
0.726362176805
0.719275231867
0.712229712156
0.705226125877
0.698263721311
0.691343082662
0.684463436406
0.677625321057
0.670828073009
0.664072112843
0.657356963952
0.650682823815
0.644049462005
0.637456754509
0.630904686554
0.624393081887
0.617922053147
0.61149136812
0.605100875205
0.598750680474
0.592440544296
0.586170362893
0.579940232496
0.573749905927
0.567599358094
0.561488466242
0.555417159178
0.549385355872
0.543392991752
0.537439928551
0.531526145311
0.525651496093
0.519815926577
0.514019355852
0.508261666771
0.502542812135
0.496862676549
0.491221191022
0.48561825179
0.480053776502
0.474527689653
0.469039888782
0.463590286281
0.458178804589
0.452805335504
0.447469816912
0.44217214183
0.436910742316
)
;

boundaryField
{
    ground
    {
        type            zeroGradient;
    }
    top
    {
        type            zeroGradient;
    }
    left
    {
        type            zeroGradient;
    }
    right
    {
        type            zeroGradient;
    }
    defaultFaces
    {
        type            empty;
    }
}


// ************************************************************************* //