/*--------------------------------*- C++ -*----------------------------------*| =========                 |                                                 |
| \      /  F ield         | OpenFOAM: The Open Source CFD Toolbox           |
|  \    /   O peration     | Version:  dev                                   |
|   \  /    A nd           | Web:      www.OpenFOAM.org                      |
|    \/     M anipulation  |                                                 |
\*---------------------------------------------------------------------------*/
FoamFile
{
    version     2.0;
    format      ascii;
    class       volScalarField;
    location    "0";
    object      rho.buoyant;
}
// * * * * * * * * * * * * * * * * * * * * * * * * * * * * * * * * * * * * * //

dimensions      [1 -3 0 0 0 0 0];

internalField   nonuniform List<scalar> 
100
(
1.15384593489
1.14428189841
1.13490452286
1.1255149427
1.11611155744
1.10670038412
1.0972912537
1.08789286604
1.07851373006
1.06916257566
1.05983719311
1.05057820598
1.04136972399
1.03222220332
1.02314586911
1.01414829778
1.00523647173
0.996416482321
0.987694691242
0.979069532779
0.970554630387
0.962161428011
0.953850549129
0.945646113484
0.937550449835
0.92955354371
0.92164649836
0.913821304624
0.906068632157
0.89837761137
0.890736373879
0.883132519274
0.875553504944
0.867994813788
0.860425451123
0.852848792067
0.845251056172
0.837624361797
0.829979963074
0.82233540759
0.814704193556
0.80710855291
0.79955637338
0.792046212046
0.784578871958
0.777154888826
0.769772613538
0.762433005207
0.755135807523
0.747880528784
0.740668012371
0.733496885744
0.726367864577
0.719280583303
0.712235003482
0.705231115934
0.698268635938
0.691347733421
0.68446804401
0.677629725787
0.670832454222
0.664076302077
0.657361112493
0.650686760131
0.644053257904
0.637460338026
0.630908203462
0.624396558006
0.617925409537
0.611494630322
0.605104092687
0.598753877891
0.59244371516
0.58617352943
0.579943383272
0.573753036533
0.567602461511
0.561491554159
0.555420247456
0.549388443897
0.543396082663
0.537443012806
0.531529197903
0.525654543443
0.519818962661
0.514022366287
0.508264672628
0.502545812514
0.496865679756
0.491224200035
0.485621276042
0.480056818201
0.474530733679
0.469042926334
0.463593309931
0.45818179253
0.452808292035
0.447472723761
0.44217499899
0.436913328596
)
;

boundaryField
{
    ground
    {
        type            zeroGradient;
    }
    top
    {
        type            zeroGradient;
    }
    left
    {
        type            zeroGradient;
    }
    right
    {
        type            zeroGradient;
    }
    defaultFaces
    {
        type            empty;
    }
}


// ************************************************************************* //