/*--------------------------------*- C++ -*----------------------------------*| =========                 |                                                 |
| \      /  F ield         | OpenFOAM: The Open Source CFD Toolbox           |
|  \    /   O peration     | Version:  dev                                   |
|   \  /    A nd           | Web:      www.OpenFOAM.org                      |
|    \/     M anipulation  |                                                 |
\*---------------------------------------------------------------------------*/
FoamFile
{
    version     2.0;
    format      ascii;
    class       volScalarField;
    location    "0";
    object      rho.stable;
}
// * * * * * * * * * * * * * * * * * * * * * * * * * * * * * * * * * * * * * //

dimensions      [1 -3 0 0 0 0 0];

internalField   nonuniform List<scalar> 
100
(
1.15395504061
1.14460118874
1.13529398132
1.12602962255
1.11681338061
1.10764019505
1.09851330436
1.08943041699
1.08039382031
1.07140099494
1.0624537834
1.05355068765
1.04469243359
1.03588007848
1.02711021695
1.01838614492
1.00970572683
1.00106948536
0.992477471702
0.983929125363
0.97542474711
0.966964052699
0.958546577033
0.950172776208
0.941842203861
0.933554550217
0.925309781524
0.917107373673
0.908947247855
0.900828942295
0.892752199116
0.884715749154
0.876718436253
0.868743574387
0.860748687252
0.852727991095
0.844781022685
0.836824560546
0.829035549626
0.821352451932
0.813737099935
0.806186922633
0.79867329185
0.791233586851
0.783839496705
0.776444782393
0.769094283953
0.761801900502
0.754569532954
0.747357528813
0.740218966528
0.733159690549
0.726148733956
0.719043562753
0.712052431373
0.705107482551
0.698108489845
0.691255716981
0.684367920998
0.677587945455
0.670788266406
0.664096125109
0.657386869666
0.650747586382
0.644147035972
0.637573014175
0.631040473431
0.62454138783
0.6180799348
0.61165739346
0.605274452178
0.598930932276
0.59262663807
0.586362001374
0.580136694635
0.573950577535
0.567803905313
0.561696442705
0.555628186848
0.549599064272
0.543609105206
0.537658145189
0.531746269289
0.525872979381
0.520038505005
0.514243028034
0.508486206946
0.502767928245
0.497088172848
0.491446959782
0.485843961595
0.480279490194
0.474753183301
0.469265297295
0.46381562505
0.458404443012
0.45303224667
0.447699020779
0.442404039086
0.437147336142
)
;

boundaryField
{
    ground
    {
        type            zeroGradient;
    }
    top
    {
        type            zeroGradient;
    }
    left
    {
        type            zeroGradient;
    }
    right
    {
        type            zeroGradient;
    }
    defaultFaces
    {
        type            empty;
    }
}


// ************************************************************************* //