/*--------------------------------*- C++ -*----------------------------------*| =========                 |                                                 |
| \      /  F ield         | OpenFOAM: The Open Source CFD Toolbox           |
|  \    /   O peration     | Version:  dev                                   |
|   \  /    A nd           | Web:      www.OpenFOAM.org                      |
|    \/     M anipulation  |                                                 |
\*---------------------------------------------------------------------------*/
FoamFile
{
    version     2.0;
    format      ascii;
    class       volScalarField;
    location    "0";
    object      rho.buoyant;
}
// * * * * * * * * * * * * * * * * * * * * * * * * * * * * * * * * * * * * * //

dimensions      [1 -3 0 0 0 0 0];

internalField   nonuniform List<scalar> 
100
(
1.15395515576
1.14460175729
1.13529445819
1.12603100681
1.11681410482
1.10764082831
1.09851358024
1.08943122012
1.08039382738
1.07140096283
1.06245387233
1.05355046642
1.04469225337
1.03587836197
1.02710862229
1.01838355036
1.0097027309
1.00106437525
0.992472181036
0.983922466785
0.975416224244
0.966953365828
0.958533333656
0.950156369681
0.941821746889
0.93352902969
0.925278223344
0.917068546629
0.90889944996
0.900770205357
0.892680014732
0.884626412494
0.876596768071
0.868532702712
0.860328164122
0.851992673132
0.843888140763
0.83620528835
0.828537991205
0.820864224881
0.813211137458
0.805594566256
0.798069926967
0.79057931893
0.783166336012
0.775880854489
0.768641631771
0.761408292385
0.754168010044
0.746963229495
0.739741616907
0.73253471573
0.725370162416
0.71831891322
0.711238803922
0.704188493704
0.697233804676
0.690235734694
0.683319819875
0.676385893617
0.669516530068
0.662634749595
0.655792996644
0.648971013541
0.642163494598
0.635392056756
0.628711558002
0.622182905132
0.615919155826
0.609869836526
0.60393170828
0.598084771364
0.592266294884
0.586340026451
0.580232396922
0.574056435957
0.567905847853
0.561794134239
0.555721717745
0.549688434491
0.543694383983
0.537739359675
0.531823697002
0.525946832997
0.52010908836
0.514310143827
0.508550110256
0.502828914651
0.497146425317
0.49150245672
0.485897132005
0.480330047081
0.474801374983
0.46931079387
0.46385778584
0.458442306933
0.453063757213
0.447722628731
0.442418667875
0.437152264079
)
;

boundaryField
{
    ground
    {
        type            zeroGradient;
    }
    top
    {
        type            zeroGradient;
    }
    left
    {
        type            zeroGradient;
    }
    right
    {
        type            zeroGradient;
    }
    defaultFaces
    {
        type            empty;
    }
}


// ************************************************************************* //