/*--------------------------------*- C++ -*----------------------------------*| =========                 |                                                 |
| \      /  F ield         | OpenFOAM: The Open Source CFD Toolbox           |
|  \    /   O peration     | Version:  dev                                   |
|   \  /    A nd           | Web:      www.OpenFOAM.org                      |
|    \/     M anipulation  |                                                 |
\*---------------------------------------------------------------------------*/
FoamFile
{
    version     2.0;
    format      ascii;
    class       volScalarField;
    location    "0";
    object      sigma.stable;
}
// * * * * * * * * * * * * * * * * * * * * * * * * * * * * * * * * * * * * * //

dimensions      [0 0 0 0 0 0 0];

internalField   nonuniform List<scalar> 
100
(
0.501275207462
0.504263968495
0.508535618356
0.514854171511
0.523786916431
0.533923835949
0.539597762527
0.542636450369
0.54491774506
0.546897599668
0.548765819152
0.550606348466
0.552508675925
0.554472082368
0.556553125753
0.558722231625
0.561049509847
0.563520061396
0.566173414596
0.56890784004
0.571849295531
0.574908776307
0.578141078614
0.581602899467
0.585071776317
0.588903727607
0.592810762683
0.596724724183
0.601204602848
0.605400111874
0.610160939604
0.615969776544
0.617692289252
0.61831691526
0.618493398507
0.616984531239
0.609885027474
0.63326374579
0.650882225546
0.657883840219
0.662948568497
0.660791299837
0.658568899415
0.64945315247
0.63893386628
0.637577018304
0.634832740166
0.622699992809
0.604169748018
0.591135261577
0.566425699354
0.525966218688
0.491919402427
0.499238650041
0.5
0.500098264402
0.519312040207
0.519607843137
0.535406846788
0.539215686275
0.556780327778
0.559139757096
0.578399596691
0.587044680249
0.598175272694
0.611924142741
0.618962203374
0.623114459688
0.620215261219
0.614650239621
0.608738536504
0.603397966556
0.598256533641
0.593502732747
0.588988117847
0.584712490084
0.580727087748
0.576915183992
0.57338817093
0.570036595745
0.566902677032
0.563949289404
0.561193171543
0.55859913211
0.556151323627
0.553867240712
0.551729092658
0.54967157636
0.547714285374
0.54579683966
0.543842314568
0.541770270144
0.539359257362
0.536126277776
0.530219378893
0.521036947058
0.513440273618
0.507942238429
0.504057956362
0.501216074299
)
;

boundaryField
{
    ground
    {
        type            zeroGradient;
    }
    top
    {
        type            zeroGradient;
    }
    left
    {
        type            zeroGradient;
    }
    right
    {
        type            zeroGradient;
    }
    defaultFaces
    {
        type            empty;
    }
}


// ************************************************************************* //