/*--------------------------------*- C++ -*----------------------------------*| =========                 |                                                 |
| \      /  F ield         | OpenFOAM: The Open Source CFD Toolbox           |
|  \    /   O peration     | Version:  dev                                   |
|   \  /    A nd           | Web:      www.OpenFOAM.org                      |
|    \/     M anipulation  |                                                 |
\*---------------------------------------------------------------------------*/
FoamFile
{
    version     2.0;
    format      ascii;
    class       volScalarField;
    location    "0";
    object      sigma.buoyant;
}
// * * * * * * * * * * * * * * * * * * * * * * * * * * * * * * * * * * * * * //

dimensions      [0 0 0 0 0 0 0];

internalField   nonuniform List<scalar> 
100
(
0.499791709511
0.498708715902
0.495630262168
0.489268095768
0.478458746497
0.462514555715
0.443303621644
0.423155242092
0.403089548077
0.383758322088
0.365675251662
0.349286696878
0.335014372343
0.323274946752
0.314119626504
0.30667668904
0.300451938487
0.295171292689
0.290610796627
0.286586839147
0.282933015243
0.279481541027
0.276034623881
0.272504772095
0.26888700613
0.265189261906
0.261416600206
0.257563033433
0.253603248967
0.249592839435
0.245584504284
0.241548491911
0.237455015333
0.233342504479
0.229113316708
0.225254733019
0.220425330105
0.215491919444
0.213192328828
0.213662877996
0.222678070402
0.232673888447
0.244653375524
0.244887523465
0.226763136077
0.219957484775
0.218622413605
0.211819256239
0.215459992761
0.209446075838
0.205947920745
0.205523789205
0.209158567693
0.217727430844
0.225068026477
0.227316282854
0.235405780405
0.252490607544
0.276407737241
0.290358720113
0.285242205807
0.282178217822
0.282178217822
0.27242860637
0.272277227723
0.263842668951
0.262376237624
0.252996391579
0.251700927831
0.24264712694
0.238402601631
0.233580920537
0.230319158739
0.230692052659
0.233914055656
0.238047020427
0.242211925881
0.246149134554
0.249937940487
0.253594060715
0.257095451535
0.260485442158
0.2637516205
0.266872935389
0.269861753169
0.272739536499
0.275748396051
0.279306929851
0.283787973704
0.289639043174
0.297454303402
0.308061224947
0.323243531148
0.344723593934
0.37195045273
0.403858585094
0.438674284686
0.47238074805
0.493032215671
0.499475893911
)
;

boundaryField
{
    ground
    {
        type            zeroGradient;
    }
    top
    {
        type            zeroGradient;
    }
    left
    {
        type            zeroGradient;
    }
    right
    {
        type            zeroGradient;
    }
    defaultFaces
    {
        type            empty;
    }
}


// ************************************************************************* //