/*--------------------------------*- C++ -*----------------------------------*| =========                 |                                                 |
| \      /  F ield         | OpenFOAM: The Open Source CFD Toolbox           |
|  \    /   O peration     | Version:  dev                                   |
|   \  /    A nd           | Web:      www.OpenFOAM.org                      |
|    \/     M anipulation  |                                                 |
\*---------------------------------------------------------------------------*/
FoamFile
{
    version     2.0;
    format      ascii;
    class       volScalarField;
    location    "0";
    object      sigma.stable;
}
// * * * * * * * * * * * * * * * * * * * * * * * * * * * * * * * * * * * * * //

dimensions      [0 0 0 0 0 0 0];

internalField   nonuniform List<scalar> 
100
(
0.9
0.685730197643
0.685559494942
0.6854773033
0.686475228867
0.687960271102
0.688973850042
0.6900476129
0.691278744493
0.69266976081
0.694224805789
0.695159580929
0.697836087537
0.699759402742
0.701890628344
0.704195264019
0.70589278578
0.709210483595
0.711906557946
0.714785230407
0.718688206691
0.720858090899
0.724112771235
0.728118537971
0.730921173774
0.734527211154
0.739761445922
0.741936873831
0.744679624162
0.749710072665
0.753696624448
0.75886268096
0.761773911087
0.764921526503
0.76980761677
0.771615548674
0.778487839293
0.782992593299
0.785025775281
0.784033532368
0.776370862369
0.763053262983
0.749944981306
0.753837319132
0.766118794124
0.77485267885
0.783742417547
0.783574687681
0.787935954607
0.789707366752
0.789221137555
0.787783609567
0.78503036501
0.781090765937
0.776224643828
0.767204841234
0.760803213313
0.746415134497
0.723397160436
0.709152697174
0.712291350743
0.713885829762
0.719060650798
0.723479052064
0.730131772047
0.732870997525
0.740672269158
0.742796782957
0.752048273894
0.755275053788
0.760886635289
0.766955944913
0.768995182412
0.768875100654
0.764035669796
0.7611938938
0.757803401056
0.7532884675
0.74956952092
0.745133602374
0.742539284901
0.739263582265
0.735245209938
0.733140484991
0.730322899559
0.728717356611
0.725222619821
0.722876710214
0.720735954463
0.718792620035
0.716762634206
0.715400226813
0.713938858109
0.712668502066
0.711586245
0.710689077615
0.709975314205
0.709442849865
0.708813534002
0.705128308323
)
;

boundaryField
{
    ground
    {
        type            zeroGradient;
    }
    top
    {
        type            zeroGradient;
    }
    left
    {
        type            zeroGradient;
    }
    right
    {
        type            zeroGradient;
    }
    defaultFaces
    {
        type            empty;
    }
}


// ************************************************************************* //