/*--------------------------------*- C++ -*----------------------------------*| =========                 |                                                 |
| \      /  F ield         | OpenFOAM: The Open Source CFD Toolbox           |
|  \    /   O peration     | Version:  dev                                   |
|   \  /    A nd           | Web:      www.OpenFOAM.org                      |
|    \/     M anipulation  |                                                 |
\*---------------------------------------------------------------------------*/
FoamFile
{
    version     2.0;
    format      ascii;
    class       volScalarField;
    location    "0";
    object      sigmaRhoInitial.buoyant;
}
// * * * * * * * * * * * * * * * * * * * * * * * * * * * * * * * * * * * * * //

dimensions      [1 -3 0 0 0 0 0];

internalField   nonuniform List<scalar> 
100
(
0.11538449606
0.130844614249
0.127360488966
0.12493334451
0.123283051995
0.122476526585
0.122102785664
0.121885001074
0.121706296319
0.121512734264
0.120292726948
0.120616827789
0.120643651013
0.120280900132
0.119845095879
0.119340860911
0.118773161206
0.118147225287
0.117468727805
0.116743319556
0.115977063193
0.115174434849
0.114345431437
0.113498898857
0.112644961824
0.111796727051
0.110970971877
0.110189631412
0.109482092592
0.108888722225
0.108466475802
0.108298177289
0.108762552343
0.111256818603
0.111810468853
0.117113994029
0.120436736314
0.126081856759
0.132831487667
0.135458512963
0.137811322227
0.143716567338
0.148023274946
0.149579312267
0.154980080382
0.158345533809
0.161632733036
0.16619799446
0.16646967687
0.170365820737
0.172921883641
0.175423438842
0.178549233847
0.179902588952
0.183341127124
0.183802179413
0.187237747169
0.187138084571
0.190241709363
0.189931545691
0.192471202953
0.192244769116
0.193860671015
0.194028985901
0.194307496786
0.195278086236
0.19572434505
0.196983257326
0.196301287406
0.195927288596
0.197026581233
0.196290594784
0.196118350889
0.196831068529
0.195385769506
0.194870454649
0.194077142463
0.193544462586
0.192776524096
0.191920900989
0.1907499682
0.190343277252
0.188947446686
0.187870308542
0.186733701978
0.185531585744
0.184635829691
0.183007043635
0.181660657815
0.180234775217
0.178747739734
0.177194682932
0.175561355391
0.173868993678
0.172140572286
0.170352329006
0.168688545645
0.166698464017
0.16476846988
0.117568846895
)
;

boundaryField
{
    ground
    {
        type            zeroGradient;
    }
    top
    {
        type            zeroGradient;
    }
    left
    {
        type            zeroGradient;
    }
    right
    {
        type            zeroGradient;
    }
    defaultFaces
    {
        type            empty;
    }
}


// ************************************************************************* //