/*--------------------------------*- C++ -*----------------------------------*| =========                 |                                                 |
| \      /  F ield         | OpenFOAM: The Open Source CFD Toolbox           |
|  \    /   O peration     | Version:  dev                                   |
|   \  /    A nd           | Web:      www.OpenFOAM.org                      |
|    \/     M anipulation  |                                                 |
\*---------------------------------------------------------------------------*/
FoamFile
{
    version     2.0;
    format      ascii;
    class       volScalarField;
    location    "0";
    object      sigma.buoyant;
}
// * * * * * * * * * * * * * * * * * * * * * * * * * * * * * * * * * * * * * //

dimensions      [0 0 0 0 0 0 0];

internalField   nonuniform List<scalar> 
100
(
0.316831683168
0.316831683168
0.311881188119
0.311881188119
0.311881188119
0.311881188119
0.311881188119
0.311881188119
0.311881188119
0.311881188119
0.311881188119
0.306930693069
0.30198019802
0.30198019802
0.30198019802
0.30198019802
0.292079207921
0.292079207921
0.292079207921
0.292079207921
0.282178217822
0.282178217822
0.282178217822
0.272277227723
0.272277227723
0.272277227723
0.262376237624
0.262376237624
0.262376237624
0.252475247525
0.252475247525
0.242574257426
0.242574257426
0.242574257426
0.232673267327
0.232673267327
0.222772277228
0.222772277228
0.222772277228
0.212871287129
0.222772277228
0.232673267327
0.242574257426
0.262376237624
0.242574257426
0.222772277228
0.222772277228
0.222772277228
0.212871287129
0.212871287129
0.222772277228
0.212871287129
0.222772277228
0.222772277228
0.222772277228
0.222772277228
0.232673267327
0.242574257426
0.252475247525
0.252475247525
0.292079207921
0.292079207921
0.292079207921
0.282178217822
0.282178217822
0.272277227723
0.272277227723
0.262376237624
0.262376237624
0.252475247525
0.242574257426
0.242574257426
0.232673267327
0.232673267327
0.232673267327
0.232673267327
0.242574257426
0.242574257426
0.252475247525
0.252475247525
0.252475247525
0.262376237624
0.262376237624
0.262376237624
0.272277227723
0.272277227723
0.272277227723
0.272277227723
0.272277227723
0.282178217822
0.282178217822
0.282178217822
0.282178217822
0.282178217822
0.282178217822
0.287128712871
0.292079207921
0.292079207921
0.292079207921
0.292079207921
)
;

boundaryField
{
    ground
    {
        type            zeroGradient;
    }
    top
    {
        type            zeroGradient;
    }
    left
    {
        type            zeroGradient;
    }
    right
    {
        type            zeroGradient;
    }
    defaultFaces
    {
        type            empty;
    }
}


// ************************************************************************* //