/*--------------------------------*- C++ -*----------------------------------*| =========                 |                                                 |
| \      /  F ield         | OpenFOAM: The Open Source CFD Toolbox           |
|  \    /   O peration     | Version:  dev                                   |
|   \  /    A nd           | Web:      www.OpenFOAM.org                      |
|    \/     M anipulation  |                                                 |
\*---------------------------------------------------------------------------*/
FoamFile
{
    version     2.0;
    format      ascii;
    class       volScalarField;
    location    "0";
    object      sigma.buoyant;
}
// * * * * * * * * * * * * * * * * * * * * * * * * * * * * * * * * * * * * * //

dimensions      [0 0 0 0 0 0 0];

internalField   nonuniform List<scalar> 
100
(
0.499804048828
0.498726842133
0.495632728006
0.489263970927
0.478457195804
0.462505916838
0.443295418726
0.423155273686
0.40309400924
0.383771259911
0.365695175766
0.349292198224
0.335011551533
0.323274201331
0.314114764939
0.30667290134
0.300450038105
0.295170608807
0.290611064829
0.286589545175
0.28293851055
0.279482598895
0.276035262068
0.272506402795
0.268888869826
0.265190265097
0.261418360773
0.257566056276
0.253605736369
0.249595185068
0.245585690535
0.241548658589
0.237454523261
0.233342062099
0.229113219963
0.225254735145
0.220424974735
0.215491464451
0.21319212578
0.21366267341
0.222678019387
0.232673889312
0.244653846812
0.244889715405
0.22676440477
0.219957831251
0.218622519321
0.211819617136
0.215461164609
0.209446539339
0.20594838359
0.205524155946
0.209159118512
0.217727707345
0.225067671759
0.227316342259
0.235406911603
0.252490163173
0.276406322167
0.290358381299
0.285242221122
0.282178217822
0.282178217822
0.272428497285
0.272277227723
0.263842571738
0.262376237624
0.252996582084
0.251701696093
0.242647351879
0.238403021033
0.233580991309
0.230319845483
0.230692456548
0.233914858964
0.238048063732
0.242211250728
0.246148383027
0.249939308528
0.253595428042
0.25709412199
0.260483235803
0.263749191954
0.266872366879
0.269863737928
0.272739435746
0.275744557894
0.27930167003
0.283792250337
0.289643033235
0.297451684063
0.308064181748
0.323231471827
0.344719164959
0.371970412742
0.403872941326
0.438676757548
0.472367696118
0.493025351938
0.499479006115
)
;

boundaryField
{
    ground
    {
        type            zeroGradient;
    }
    top
    {
        type            zeroGradient;
    }
    left
    {
        type            zeroGradient;
    }
    right
    {
        type            zeroGradient;
    }
    defaultFaces
    {
        type            empty;
    }
}


// ************************************************************************* //