/*--------------------------------*- C++ -*----------------------------------*| =========                 |                                                 |
| \      /  F ield         | OpenFOAM: The Open Source CFD Toolbox           |
|  \    /   O peration     | Version:  dev                                   |
|   \  /    A nd           | Web:      www.OpenFOAM.org                      |
|    \/     M anipulation  |                                                 |
\*---------------------------------------------------------------------------*/
FoamFile
{
    version     2.0;
    format      ascii;
    class       volScalarField;
    location    "0";
    object      sigmaRhoExpected.stable;
}
// * * * * * * * * * * * * * * * * * * * * * * * * * * * * * * * * * * * * * //

dimensions      [1 -3 0 0 0 0 0];

internalField   nonuniform List<scalar> 
100
(
1.03846135883
1.01246359858
1.00556343718
0.99975673082
0.992673876461
0.98466432222
0.976056009678
0.967210842301
0.958312438508
0.949445798858
0.941638852136
0.932166373165
0.923344458774
0.914817347357
0.906418838134
0.898146471565
0.889996893603
0.881965700666
0.874047171563
0.866234923108
0.858524681689
0.850912339588
0.843387973308
0.835938424555
0.828551897839
0.821215080572
0.813910742126
0.806616870319
0.799304954155
0.79193709398
0.784461322553
0.776804027336
0.768857164198
0.759645486937
0.750840930473
0.740323450557
0.726785319482
0.712078847622
0.701236131051
0.690729577236
0.677145780468
0.664498181087
0.654976120762
0.642440590423
0.630518831083
0.621921948722
0.609743881368
0.599185543142
0.589005026575
0.577518358874
0.570391506782
0.559402462593
0.550360952069
0.540635265725
0.531374005853
0.522625560489
0.513426571387
0.505346989665
0.496495587369
0.488758311898
0.480538909013
0.472838033458
0.46555610603
0.457574242625
0.450819120945
0.442229981033
0.435889721945
0.428871481547
0.422216125268
0.415613508976
0.408301913954
0.402818455664
0.396651119605
0.389834232686
0.384710472757
0.378952757267
0.37349337914
0.367831571664
0.362446590684
0.357198028532
0.352265247641
0.347051388103
0.342146517862
0.337373442419
0.33272944465
0.328144718636
0.323256771368
0.319514137704
0.315326980862
0.311239311552
0.307239056634
0.303314128999
0.29945291622
0.295651358103
0.291908291447
0.288228943238
0.284532862639
0.280924792749
0.277625674788
0.316096465932
)
;

boundaryField
{
    ground
    {
        type            zeroGradient;
    }
    top
    {
        type            zeroGradient;
    }
    left
    {
        type            zeroGradient;
    }
    right
    {
        type            zeroGradient;
    }
    defaultFaces
    {
        type            empty;
    }
}


// ************************************************************************* //