/*--------------------------------*- C++ -*----------------------------------*| =========                 |                                                 |
| \      /  F ield         | OpenFOAM: The Open Source CFD Toolbox           |
|  \    /   O peration     | Version:  dev                                   |
|   \  /    A nd           | Web:      www.OpenFOAM.org                      |
|    \/     M anipulation  |                                                 |
\*---------------------------------------------------------------------------*/
FoamFile
{
    version     2.0;
    format      ascii;
    class       volScalarField;
    location    "0";
    object      sigmaRhoInitial.stable;
}
// * * * * * * * * * * * * * * * * * * * * * * * * * * * * * * * * * * * * * //

dimensions      [1 -3 0 0 0 0 0];

internalField   nonuniform List<scalar> 
100
(
1.03846046454
1.01364364118
1.00781065373
1.00095907366
0.99336862848
0.984972554174
0.976182415216
0.967275959699
0.958371247235
0.949523580255
0.941746044516
0.93246964599
0.923537309619
0.915042833556
0.906671089051
0.898418655312
0.89028160886
0.882255522938
0.874335261358
0.866515348774
0.858790499243
0.851154240426
0.843597415075
0.83611006306
0.828680869603
0.821295486526
0.813935718869
0.806578116516
0.79919168564
0.791734440157
0.784147864641
0.776347651462
0.767953747613
0.757567809278
0.749159454543
0.736037587763
0.724932584374
0.711541364231
0.697082282694
0.686783455803
0.6767985161
0.663303258208
0.651449045517
0.642387936376
0.629524450874
0.618738555441
0.608073110356
0.596171719833
0.588605945543
0.57745766732
0.567691347705
0.558021333356
0.547768796464
0.539330336223
0.52884824898
0.521385122858
0.51098887557
0.504169171876
0.494187412814
0.487660592814
0.478325020819
0.471796526971
0.463466602371
0.456625087576
0.449714117291
0.442151726535
0.435154241895
0.4273845964
0.421596242584
0.415540243839
0.40805119643
0.402437587407
0.396300311479
0.389318065744
0.384533744211
0.378859261697
0.373502515277
0.3679247908
0.362621894433
0.357446167098
0.352625148568
0.347079201981
0.34256162337
0.337764494962
0.333065891535
0.328471768159
0.323610168793
0.319520397152
0.315186936142
0.310971595837
0.306855945368
0.302844765789
0.298952218865
0.295156980403
0.29143598793
0.287812915375
0.284103392659
0.280758089282
0.277390530684
0.319330344176
)
;

boundaryField
{
    ground
    {
        type            zeroGradient;
    }
    top
    {
        type            zeroGradient;
    }
    left
    {
        type            zeroGradient;
    }
    right
    {
        type            zeroGradient;
    }
    defaultFaces
    {
        type            empty;
    }
}


// ************************************************************************* //