/*--------------------------------*- C++ -*----------------------------------*| =========                 |                                                 |
| \      /  F ield         | OpenFOAM: The Open Source CFD Toolbox           |
|  \    /   O peration     | Version:  dev                                   |
|   \  /    A nd           | Web:      www.OpenFOAM.org                      |
|    \/     M anipulation  |                                                 |
\*---------------------------------------------------------------------------*/
FoamFile
{
    version     2.0;
    format      ascii;
    class       volScalarField;
    location    "0";
    object      sigma.buoyant;
}
// * * * * * * * * * * * * * * * * * * * * * * * * * * * * * * * * * * * * * //

dimensions      [0 0 0 0 0 0 0];

internalField   nonuniform List<scalar> 
100
(
0.498298877542
0.478674622744
0.431285013086
0.379841622525
0.334910200009
0.301754145004
0.2831185075
0.273136527993
0.265656073115
0.257809620237
0.250138564274
0.243960331049
0.240017941124
0.237898218837
0.237501447026
0.238654036381
0.240776509771
0.243215102491
0.244941272444
0.245540789437
0.246897331084
0.249558368699
0.253439887611
0.257856937348
0.261726032475
0.264103304402
0.264705882353
0.264705882353
0.264705882353
0.264705882353
0.264705882353
0.264705882353
0.264705882353
0.264705882353
0.264481553975
0.261576115568
0.255504025544
0.249111673687
0.245688722585
0.245098055442
0.244377759941
0.244030145696
0.24879989924
0.258118238067
0.270089444865
0.282461712346
0.29399284872
0.305214684962
0.315975912277
0.326154314889
0.335851466475
0.345145473201
0.35400157867
0.362419349386
0.370417705921
0.378014232446
0.385229814632
0.392092976942
0.39861775772
0.404834752437
0.41078081224
0.416454195387
0.421858119904
0.427036924702
0.432021162802
0.436836734119
0.44152157849
0.446103275612
0.450688291109
0.455475009956
0.460453824283
0.465467395679
0.470350934294
0.474887916865
0.478728587341
0.481901788716
0.484541575507
0.486728978401
0.488515579974
0.489984030479
0.491232315591
0.492286395966
0.493160677351
0.493918722205
0.494577759059
0.495160398975
0.495709396559
0.496176686029
0.49659348031
0.497004747535
0.497377168454
0.497694727265
0.497992074667
0.498311046792
0.498596160151
0.498834501614
0.499095732814
0.499362433918
0.499613277045
0.499959015214
)
;

boundaryField
{
    ground
    {
        type            zeroGradient;
    }
    top
    {
        type            zeroGradient;
    }
    left
    {
        type            zeroGradient;
    }
    right
    {
        type            zeroGradient;
    }
    defaultFaces
    {
        type            empty;
    }
}


// ************************************************************************* //