/*--------------------------------*- C++ -*----------------------------------*| =========                 |                                                 |
| \      /  F ield         | OpenFOAM: The Open Source CFD Toolbox           |
|  \    /   O peration     | Version:  dev                                   |
|   \  /    A nd           | Web:      www.OpenFOAM.org                      |
|    \/     M anipulation  |                                                 |
\*---------------------------------------------------------------------------*/
FoamFile
{
    version     2.0;
    format      ascii;
    class       volScalarField;
    location    "0";
    object      sigma.stable;
}
// * * * * * * * * * * * * * * * * * * * * * * * * * * * * * * * * * * * * * //

dimensions      [0 0 0 0 0 0 0];

internalField   nonuniform List<scalar> 
100
(
0.683168316832
0.683168316832
0.688118811881
0.688118811881
0.688118811881
0.688118811881
0.688118811881
0.688118811881
0.688118811881
0.688118811881
0.688118811881
0.693069306931
0.69801980198
0.69801980198
0.69801980198
0.69801980198
0.707920792079
0.707920792079
0.707920792079
0.707920792079
0.717821782178
0.717821782178
0.717821782178
0.727722772277
0.727722772277
0.727722772277
0.737623762376
0.737623762376
0.737623762376
0.747524752475
0.747524752475
0.757425742574
0.757425742574
0.757425742574
0.767326732673
0.767326732673
0.777227722772
0.777227722772
0.777227722772
0.787128712871
0.777227722772
0.767326732673
0.757425742574
0.737623762376
0.757425742574
0.777227722772
0.777227722772
0.777227722772
0.787128712871
0.787128712871
0.777227722772
0.787128712871
0.777227722772
0.777227722772
0.777227722772
0.777227722772
0.767326732673
0.757425742574
0.747524752475
0.747524752475
0.707920792079
0.707920792079
0.707920792079
0.717821782178
0.717821782178
0.727722772277
0.727722772277
0.737623762376
0.737623762376
0.747524752475
0.757425742574
0.757425742574
0.767326732673
0.767326732673
0.767326732673
0.767326732673
0.757425742574
0.757425742574
0.747524752475
0.747524752475
0.747524752475
0.737623762376
0.737623762376
0.737623762376
0.727722772277
0.727722772277
0.727722772277
0.727722772277
0.727722772277
0.717821782178
0.717821782178
0.717821782178
0.717821782178
0.717821782178
0.717821782178
0.712871287129
0.707920792079
0.707920792079
0.707920792079
0.707920792079
)
;

boundaryField
{
    ground
    {
        type            zeroGradient;
    }
    top
    {
        type            zeroGradient;
    }
    left
    {
        type            zeroGradient;
    }
    right
    {
        type            zeroGradient;
    }
    defaultFaces
    {
        type            empty;
    }
}


// ************************************************************************* //