/*--------------------------------*- C++ -*----------------------------------*| =========                 |                                                 |
| \      /  F ield         | OpenFOAM: The Open Source CFD Toolbox           |
|  \    /   O peration     | Version:  dev                                   |
|   \  /    A nd           | Web:      www.OpenFOAM.org                      |
|    \/     M anipulation  |                                                 |
\*---------------------------------------------------------------------------*/
FoamFile
{
    version     2.0;
    format      ascii;
    class       volScalarField;
    location    "0";
    object      sigma.buoyant;
}
// * * * * * * * * * * * * * * * * * * * * * * * * * * * * * * * * * * * * * //

dimensions      [0 0 0 0 0 0 0];

internalField   nonuniform List<scalar> 
100
(
0.1
0.115289772446
0.114108293165
0.112034627455
0.111061425377
0.110942649533
0.111397692967
0.112110280271
0.112918791221
0.113747287039
0.11362578953
0.115113629982
0.116064430942
0.116772289575
0.11740570218
0.11796539121
0.118453023776
0.118871282041
0.119224191382
0.119516476004
0.119750723607
0.11992964573
0.120062226149
0.120160677382
0.120236233637
0.120302135377
0.120376363522
0.120482842646
0.120653557103
0.120932033715
0.121378984672
0.122081685085
0.123170019612
0.125818766167
0.128013476397
0.132392864324
0.140351670532
0.149992624127
0.1551448215
0.160028933499
0.168787146859
0.176682628581
0.180817462383
0.188838980793
0.196359081129
0.19975213009
0.207866407732
0.214167585462
0.220010631449
0.22791058817
0.230051057483
0.237414987186
0.242529965998
0.24846038324
0.254191692669
0.259039351592
0.265013224226
0.269172688102
0.274959362978
0.278860143399
0.283995925599
0.288103244609
0.292063841408
0.296878322624
0.300247253317
0.306351819959
0.309195770412
0.313403544253
0.316834860001
0.320460220191
0.325588011855
0.327364444333
0.330588067877
0.335181732734
0.336668465868
0.339491035066
0.341829383913
0.344754827967
0.347226134984
0.349558241187
0.350967024036
0.35385285269
0.355839237323
0.357670687145
0.359347652565
0.360875848634
0.362507702526
0.363537111391
0.364692401576
0.365720095846
0.366631910106
0.36743225842
0.368124614871
0.368716636309
0.369211443635
0.369618429999
0.36994195256
0.370183735951
0.37071545978
0.275668639762
)
;

boundaryField
{
    ground
    {
        type            zeroGradient;
    }
    top
    {
        type            zeroGradient;
    }
    left
    {
        type            zeroGradient;
    }
    right
    {
        type            zeroGradient;
    }
    defaultFaces
    {
        type            empty;
    }
}


// ************************************************************************* //