/*--------------------------------*- C++ -*----------------------------------*| =========                 |                                                 |
| \      /  F ield         | OpenFOAM: The Open Source CFD Toolbox           |
|  \    /   O peration     | Version:  dev                                   |
|   \  /    A nd           | Web:      www.OpenFOAM.org                      |
|    \/     M anipulation  |                                                 |
\*---------------------------------------------------------------------------*/
FoamFile
{
    version     2.0;
    format      ascii;
    class       volScalarField;
    location    "0";
    object      sigmaRhoExpected.stable;
}
// * * * * * * * * * * * * * * * * * * * * * * * * * * * * * * * * * * * * * //

dimensions      [1 -3 0 0 0 0 0];

internalField   nonuniform List<scalar> 
100
(
1.03846047441
1.01362050072
1.007797652
1.00094862655
0.993362146929
0.984968321284
0.97617846611
0.967271233587
0.958365204759
0.949515930275
0.941735089545
0.932444323823
0.923523410653
0.915027485312
0.906654639622
0.898401534934
0.890264306706
0.882238549745
0.874319099516
0.866500419512
0.858777162385
0.851142750077
0.84358782191
0.836102232
0.828674536768
0.821290295776
0.813931281833
0.806574091287
0.799187870865
0.791730876004
0.784144922556
0.776346099163
0.767958532669
0.757576760039
0.749174122172
0.736081052081
0.724985310624
0.711573536758
0.69714120672
0.686839265753
0.676847877182
0.663329326703
0.651496250373
0.642448290971
0.629568015376
0.618843852758
0.608142730253
0.596318482679
0.588758132877
0.577536914181
0.56783677693
0.558101134536
0.54794824301
0.539445760205
0.529123561713
0.52154705191
0.511339638889
0.504356561707
0.494544439969
0.487851817168
0.47877096915
0.472052096656
0.464077894919
0.456941184499
0.450395875237
0.442472867852
0.43547348208
0.428140106785
0.421980680106
0.415486407221
0.40822456068
0.402878669095
0.396786776892
0.390314391196
0.384992081585
0.379285281819
0.373875840179
0.367697368834
0.362836823275
0.357591379227
0.352714316937
0.346997835436
0.342384661999
0.337474183769
0.332642522323
0.327877806976
0.323118121598
0.318441616527
0.313840711733
0.309306080133
0.30465540196
0.300493946661
0.296229400782
0.292080054418
0.288064937641
0.284173078892
0.280379141498
0.276667905213
0.273243763033
0.317340898646
)
;

boundaryField
{
    ground
    {
        type            zeroGradient;
    }
    top
    {
        type            zeroGradient;
    }
    left
    {
        type            zeroGradient;
    }
    right
    {
        type            zeroGradient;
    }
    defaultFaces
    {
        type            empty;
    }
}


// ************************************************************************* //