/*--------------------------------*- C++ -*----------------------------------*| =========                 |                                                 |
| \      /  F ield         | OpenFOAM: The Open Source CFD Toolbox           |
|  \    /   O peration     | Version:  dev                                   |
|   \  /    A nd           | Web:      www.OpenFOAM.org                      |
|    \/     M anipulation  |                                                 |
\*---------------------------------------------------------------------------*/
FoamFile
{
    version     2.0;
    format      ascii;
    class       volScalarField;
    location    "0";
    object      sigmaRhoExpected.stable;
}
// * * * * * * * * * * * * * * * * * * * * * * * * * * * * * * * * * * * * * //

dimensions      [1 -3 0 0 0 0 0];

internalField   nonuniform List<scalar> 
100
(
0.57720370356
0.573767000167
0.572591683415
0.57507121473
0.582412318434
0.595259141876
0.61143922184
0.628321260074
0.644778043491
0.660115144475
0.673808157744
0.685422970297
0.694566870558
0.700866393509
0.704330357352
0.705915434628
0.706168600863
0.705398282074
0.70385432257
0.701736760824
0.699223415114
0.696489109468
0.693728853597
0.691023119084
0.688372277268
0.685766172855
0.683200572015
0.6806811545
0.678227674025
0.675784485368
0.673316697599
0.670842610439
0.668360865299
0.665885814617
0.663484114865
0.660721751785
0.658752506334
0.656786660367
0.652791357072
0.646357791571
0.633089613088
0.619119990465
0.603699570842
0.597350657008
0.606089620009
0.605753463093
0.60126131974
0.600512346146
0.591744385868
0.59120892163
0.588137996485
0.58278255369
0.573610640672
0.561768336578
0.550883650426
0.543902373465
0.534486404961
0.517777340094
0.49647443967
0.481202966037
0.478100259933
0.476630473368
0.471823708562
0.472888881456
0.468655521125
0.468412063539
0.465348626178
0.465973816179
0.462052858809
0.46299512951
0.460411081952
0.45875967643
0.455834316877
0.450932532116
0.444331558665
0.437228296181
0.430178391098
0.42333975866
0.416660713348
0.410131774373
0.403759706995
0.397517808751
0.391411849401
0.385449501026
0.379621087421
0.373913621894
0.368206319463
0.362289398819
0.355985629122
0.349089949608
0.341335513651
0.332357809934
0.321363772098
0.307595295657
0.291402325446
0.273365163526
0.25436023178
0.236221810579
0.224230124547
0.21873303607
)
;

boundaryField
{
    ground
    {
        type            zeroGradient;
    }
    top
    {
        type            zeroGradient;
    }
    left
    {
        type            zeroGradient;
    }
    right
    {
        type            zeroGradient;
    }
    defaultFaces
    {
        type            empty;
    }
}


// ************************************************************************* //