/*--------------------------------*- C++ -*----------------------------------*| =========                 |                                                 |
| \      /  F ield         | OpenFOAM: The Open Source CFD Toolbox           |
|  \    /   O peration     | Version:  dev                                   |
|   \  /    A nd           | Web:      www.OpenFOAM.org                      |
|    \/     M anipulation  |                                                 |
\*---------------------------------------------------------------------------*/
FoamFile
{
    version     2.0;
    format      ascii;
    class       volScalarField;
    location    "0";
    object      sigmaRhoInitial.stable;
}
// * * * * * * * * * * * * * * * * * * * * * * * * * * * * * * * * * * * * * //

dimensions      [1 -3 0 0 0 0 0];

internalField   nonuniform List<scalar> 
100
(
1.0385293298
0.784864422875
0.778287875787
0.77184533015
0.76664165354
0.7619902612
0.75682493422
0.751737834582
0.74683240855
0.742107198589
0.737562430441
0.732367597755
0.729006796095
0.724849723579
0.72090361072
0.717128084158
0.712730793818
0.709957290255
0.706541149287
0.703289955406
0.701020332861
0.697040425448
0.694095400693
0.691841166194
0.688418838904
0.68573190959
0.684523959292
0.680457047049
0.676902450782
0.675396249776
0.672909151146
0.671433845833
0.667931676674
0.664621146511
0.662789883326
0.658288889762
0.658071886833
0.655797512506
0.651432362458
0.644570680605
0.632321214647
0.615680589496
0.599452365821
0.596880683755
0.600857618355
0.601944821327
0.603051410379
0.597186681856
0.594759749311
0.590372460854
0.584326254461
0.577623597411
0.570021149516
0.561638316486
0.552683628909
0.540902464981
0.531105331362
0.515912946586
0.495054167386
0.480479936895
0.477768488958
0.47402356007
0.472633272234
0.470713142109
0.470199538038
0.467142609197
0.46726419684
0.463780305219
0.464692752183
0.461839244883
0.460416758209
0.459224455158
0.455598552206
0.450709873272
0.44311552725
0.436757794092
0.430153633885
0.422989356139
0.416351898132
0.409394881754
0.403521354979
0.397341566822
0.390834663839
0.385409964313
0.379667776006
0.374609909347
0.368638338146
0.363312429343
0.358143116639
0.353122799026
0.348109863551
0.343467645449
0.33882093767
0.334307201596
0.329921735676
0.325659901292
0.321517764343
0.317491284108
0.313454409396
0.308115281848
)
;

boundaryField
{
    ground
    {
        type            zeroGradient;
    }
    top
    {
        type            zeroGradient;
    }
    left
    {
        type            zeroGradient;
    }
    right
    {
        type            zeroGradient;
    }
    defaultFaces
    {
        type            empty;
    }
}


// ************************************************************************* //