/*--------------------------------*- C++ -*----------------------------------*| =========                 |                                                 |
| \      /  F ield         | OpenFOAM: The Open Source CFD Toolbox           |
|  \    /   O peration     | Version:  dev                                   |
|   \  /    A nd           | Web:      www.OpenFOAM.org                      |
|    \/     M anipulation  |                                                 |
\*---------------------------------------------------------------------------*/
FoamFile
{
    version     2.0;
    format      ascii;
    class       volScalarField;
    location    "0";
    object      sigmaRhoInitial.buoyant;
}
// * * * * * * * * * * * * * * * * * * * * * * * * * * * * * * * * * * * * * //

dimensions      [1 -3 0 0 0 0 0];

internalField   nonuniform List<scalar> 
100
(
0.576720482225
0.570806282144
0.562669595766
0.550915098724
0.534333779185
0.512285437117
0.486961257065
0.460985612898
0.435483402016
0.411147942729
0.388502540028
0.367981476283
0.349977819721
0.334865004049
0.322627058592
0.312307036387
0.303360123797
0.295479375075
0.288417338081
0.281974162224
0.275973213154
0.2702422944
0.264586186419
0.258921148307
0.253244072109
0.247564045944
0.241887213242
0.236209395946
0.230509022817
0.224838200144
0.219244617429
0.213701315112
0.208182239812
0.202721537586
0.197234982654
0.19214024434
0.186294065664
0.180442236276
0.176847090566
0.175533665367
0.18111841018
0.18741229978
0.195196500499
0.193558639858
0.17756122439
0.170601917829
0.16794795343
0.161171434526
0.162357419736
0.156309654941
0.15222206514
0.150448155504
0.151635438194
0.156326179333
0.160039149168
0.160077924745
0.164159420507
0.17433760821
0.188952908416
0.196501032486
0.19110605954
0.187142780825
0.185237048147
0.177018291315
0.175097083841
0.16792496362
0.165252651109
0.157681529156
0.15522278251
0.148053621298
0.143914864307
0.139492022129
0.136064658257
0.134822834552
0.135255995179
0.136216739529
0.137185807497
0.138000193018
0.138703485693
0.139294357056
0.139740271857
0.140055322999
0.140254582885
0.14034666371
0.140343541129
0.140258983711
0.140218308594
0.140429961985
0.141070169143
0.142343559292
0.144516165404
0.147953112891
0.153455516921
0.1617571902
0.172501396631
0.185108928958
0.198703975766
0.211445372978
0.218069598199
0.218282692239
)
;

boundaryField
{
    ground
    {
        type            zeroGradient;
    }
    top
    {
        type            zeroGradient;
    }
    left
    {
        type            zeroGradient;
    }
    right
    {
        type            zeroGradient;
    }
    defaultFaces
    {
        type            empty;
    }
}


// ************************************************************************* //