/*--------------------------------*- C++ -*----------------------------------*| =========                 |                                                 |
| \      /  F ield         | OpenFOAM: The Open Source CFD Toolbox           |
|  \    /   O peration     | Version:  dev                                   |
|   \  /    A nd           | Web:      www.OpenFOAM.org                      |
|    \/     M anipulation  |                                                 |
\*---------------------------------------------------------------------------*/
FoamFile
{
    version     2.0;
    format      ascii;
    class       volScalarField;
    location    "0";
    object      sigmaRhoExpected.stable;
}
// * * * * * * * * * * * * * * * * * * * * * * * * * * * * * * * * * * * * * //

dimensions      [1 -3 0 0 0 0 0];

internalField   nonuniform List<scalar> 
100
(
1.03852941058
0.784559419966
0.778018660816
0.771549304299
0.766443741926
0.76167387582
0.756648138876
0.751556645634
0.746647288915
0.741919187829
0.737370562743
0.733001838599
0.729171394081
0.724654706981
0.720702796511
0.71692065197
0.712225757328
0.709748150657
0.706326218067
0.703068607067
0.70051866768
0.696819751354
0.693867637131
0.691337663784
0.688192482022
0.685497677894
0.684024895986
0.680224312428
0.676392726517
0.675164901112
0.672668992184
0.670933547046
0.667694382798
0.664109283005
0.662557346649
0.658048375025
0.657599010967
0.655568455848
0.651238698206
0.644467725401
0.632269147422
0.615688023891
0.599433713044
0.5962701441
0.600383449799
0.601637003407
0.602627474107
0.597241103189
0.594605108825
0.589944413304
0.584248873353
0.577591151231
0.570034255581
0.561694336806
0.552776007971
0.541668039382
0.531400721889
0.516968392783
0.496643611348
0.480387944355
0.477481415001
0.473674699677
0.473851494215
0.470403698441
0.46949161282
0.466825070795
0.466598176818
0.464057631264
0.464422986357
0.461252980246
0.460144877789
0.458699211412
0.455455943551
0.450673395659
0.44315602085
0.436791649524
0.430221511616
0.423022239294
0.416385362145
0.40947281517
0.403558611607
0.397379803448
0.390927867488
0.385453173636
0.379712485957
0.37430572476
0.368220030116
0.363363959402
0.358196036866
0.353177302266
0.348256778696
0.34352854734
0.338883754323
0.334372101388
0.329987939298
0.325726655867
0.321583602774
0.317554962966
0.313555272338
0.308189376793
)
;

boundaryField
{
    ground
    {
        type            zeroGradient;
    }
    top
    {
        type            zeroGradient;
    }
    left
    {
        type            zeroGradient;
    }
    right
    {
        type            zeroGradient;
    }
    defaultFaces
    {
        type            empty;
    }
}


// ************************************************************************* //