/*--------------------------------*- C++ -*----------------------------------*| =========                 |                                                 |
| \      /  F ield         | OpenFOAM: The Open Source CFD Toolbox           |
|  \    /   O peration     | Version:  dev                                   |
|   \  /    A nd           | Web:      www.OpenFOAM.org                      |
|    \/     M anipulation  |                                                 |
\*---------------------------------------------------------------------------*/
FoamFile
{
    version     2.0;
    format      ascii;
    class       volScalarField;
    location    "0";
    object      sigmaRhoExpected.stable;
}
// * * * * * * * * * * * * * * * * * * * * * * * * * * * * * * * * * * * * * //

dimensions      [1 -3 0 0 0 0 0];

internalField   nonuniform List<scalar> 
100
(
0.577210856958
0.573769183919
0.572579863685
0.57505735955
0.582400389242
0.595251012447
0.611437802831
0.628325484705
0.644779517587
0.660110707618
0.673810755159
0.685425236293
0.694565845541
0.700867916078
0.704325763263
0.705911187651
0.706165541523
0.705393851561
0.703850164085
0.701733920997
0.699221592649
0.696485869977
0.693727772343
0.691022613232
0.688371117657
0.685763103872
0.683198235629
0.680679715619
0.678226206275
0.675784041127
0.673317053753
0.670842640195
0.668360719336
0.665886358393
0.66348508808
0.660722875911
0.658753016285
0.65678687872
0.652791330304
0.646357879781
0.633089628661
0.619120039337
0.603699691995
0.59735118944
0.606088293957
0.605752208454
0.601260212042
0.600512313277
0.59174415221
0.591209455517
0.588138418753
0.58278244999
0.573610105893
0.561768466506
0.550883790848
0.543902743434
0.534486947681
0.517778450293
0.496476786521
0.481204424828
0.478100845778
0.476630460396
0.471823663366
0.472888837165
0.468655460396
0.468411770604
0.46534860396
0.465973720515
0.462052880017
0.462995174945
0.460411082792
0.458759463394
0.455834120636
0.450932310979
0.444331494176
0.437227949319
0.430176791771
0.423338295077
0.416660701494
0.410133208727
0.40376136285
0.397520309467
0.391414467285
0.38545178731
0.379623500128
0.373913633984
0.368203219515
0.36228525032
0.355985843813
0.349089478309
0.341331257252
0.332357229629
0.321359577981
0.307592942465
0.291405347629
0.273364958082
0.254359312212
0.236218663572
0.224225946227
0.21873129549
)
;

boundaryField
{
    ground
    {
        type            zeroGradient;
    }
    top
    {
        type            zeroGradient;
    }
    left
    {
        type            zeroGradient;
    }
    right
    {
        type            zeroGradient;
    }
    defaultFaces
    {
        type            empty;
    }
}


// ************************************************************************* //