/*--------------------------------*- C++ -*----------------------------------*| =========                 |                                                 |
| \      /  F ield         | OpenFOAM: The Open Source CFD Toolbox           |
|  \    /   O peration     | Version:  dev                                   |
|   \  /    A nd           | Web:      www.OpenFOAM.org                      |
|    \/     M anipulation  |                                                 |
\*---------------------------------------------------------------------------*/
FoamFile
{
    version     2.0;
    format      ascii;
    class       volScalarField;
    location    "0";
    object      sigmaRhoExpected.buoyant;
}
// * * * * * * * * * * * * * * * * * * * * * * * * * * * * * * * * * * * * * //

dimensions      [1 -3 0 0 0 0 0];

internalField   nonuniform List<scalar> 
100
(
0.115384497157
0.130867772979
0.127373527217
0.124943857133
0.123289637449
0.122480909042
0.12210693449
0.121889978179
0.12171263851
0.121520726421
0.12030405673
0.120642544499
0.120657948775
0.120296634478
0.119861900994
0.119358289293
0.118790707978
0.118164366331
0.117484971102
0.116758231504
0.115990312569
0.11518573838
0.114354745553
0.113506382601
0.11265089261
0.111801476697
0.110974946647
0.110193191082
0.109485455214
0.108891862523
0.108469034321
0.108299395186
0.108757487488
0.111247644671
0.11179563364
0.117070413955
0.120383940259
0.12604965297
0.132772562386
0.135402721425
0.137761986591
0.143690525841
0.147976098132
0.149518986519
0.154936545351
0.158240266481
0.161563143623
0.166051262628
0.166317521125
0.170286606039
0.172776487066
0.175343670627
0.178369820369
0.179787197965
0.18306584723
0.183640283072
0.186887016521
0.186950727442
0.189884714925
0.189740353952
0.192025286977
0.191989231432
0.193249410148
0.193712920493
0.193625770357
0.194956976503
0.195405136439
0.19622777837
0.195916881116
0.195981156371
0.196853248286
0.195849544691
0.195631917325
0.19583477504
0.194927464153
0.194444466723
0.193703850096
0.193771917423
0.192561628281
0.191775721918
0.190660833015
0.190424677255
0.189124441726
0.188160653415
0.187157104851
0.186125580712
0.185127910753
0.184085857976
0.183006915746
0.181900324347
0.180948316319
0.179545534822
0.178284205924
0.176945951738
0.175511654162
0.173992196717
0.172412827617
0.170788678522
0.168915267659
0.119558322271
)
;

boundaryField
{
    ground
    {
        type            zeroGradient;
    }
    top
    {
        type            zeroGradient;
    }
    left
    {
        type            zeroGradient;
    }
    right
    {
        type            zeroGradient;
    }
    defaultFaces
    {
        type            empty;
    }
}


// ************************************************************************* //