/*--------------------------------*- C++ -*----------------------------------*| =========                 |                                                 |
| \      /  F ield         | OpenFOAM: The Open Source CFD Toolbox           |
|  \    /   O peration     | Version:  dev                                   |
|   \  /    A nd           | Web:      www.OpenFOAM.org                      |
|    \/     M anipulation  |                                                 |
\*---------------------------------------------------------------------------*/
FoamFile
{
    version     2.0;
    format      ascii;
    class       volScalarField;
    location    "0";
    object      sigma.buoyant;
}
// * * * * * * * * * * * * * * * * * * * * * * * * * * * * * * * * * * * * * //

dimensions      [0 0 0 0 0 0 0];

internalField   nonuniform List<scalar> 
100
(
0.1
0.314269802357
0.314440505058
0.3145226967
0.313524771133
0.312039728898
0.311026149958
0.3099523871
0.308721255507
0.30733023919
0.305775194211
0.304840419071
0.302163912463
0.300240597258
0.298109371656
0.295804735981
0.29410721422
0.290789516405
0.288093442054
0.285214769593
0.281311793309
0.279141909101
0.275887228765
0.271881462029
0.269078826226
0.265472788846
0.260238554078
0.258063126169
0.255320375838
0.250289927335
0.246303375552
0.24113731904
0.238226088913
0.235078473497
0.23019238323
0.228384451326
0.221512160707
0.217007406701
0.214974224719
0.215966467632
0.223629137631
0.236946737017
0.250055018694
0.246162680868
0.233881205876
0.22514732115
0.216257582453
0.216425312319
0.212064045393
0.210292633248
0.210778862445
0.212216390433
0.21496963499
0.218909234063
0.223775356172
0.232795158766
0.239196786687
0.253584865503
0.276602839564
0.290847302826
0.287708649257
0.286114170238
0.280939349202
0.276520947936
0.269868227953
0.267129002475
0.259327730842
0.257203217043
0.247951726106
0.244724946212
0.239113364711
0.233044055087
0.231004817588
0.231124899346
0.235964330204
0.2388061062
0.242196598944
0.2467115325
0.25043047908
0.254866397626
0.257460715099
0.260736417735
0.264754790062
0.266859515009
0.269677100441
0.271282643389
0.274777380179
0.277123289786
0.279264045537
0.281207379965
0.283237365794
0.284599773187
0.286061141891
0.287331497934
0.288413755
0.289310922385
0.290024685795
0.290557150135
0.291186465998
0.294871691677
)
;

boundaryField
{
    ground
    {
        type            zeroGradient;
    }
    top
    {
        type            zeroGradient;
    }
    left
    {
        type            zeroGradient;
    }
    right
    {
        type            zeroGradient;
    }
    defaultFaces
    {
        type            empty;
    }
}


// ************************************************************************* //