/*--------------------------------*- C++ -*----------------------------------*| =========                 |                                                 |
| \      /  F ield         | OpenFOAM: The Open Source CFD Toolbox           |
|  \    /   O peration     | Version:  dev                                   |
|   \  /    A nd           | Web:      www.OpenFOAM.org                      |
|    \/     M anipulation  |                                                 |
\*---------------------------------------------------------------------------*/
FoamFile
{
    version     2.0;
    format      ascii;
    class       volScalarField;
    location    "0";
    object      sigma.buoyant;
}
// * * * * * * * * * * * * * * * * * * * * * * * * * * * * * * * * * * * * * //

dimensions      [0 0 0 0 0 0 0];

internalField   nonuniform List<scalar> 
100
(
0.1
0.114348831941
0.11222540579
0.111007700574
0.110467639916
0.110681982088
0.111294506185
0.112059995986
0.112872906946
0.113682787597
0.113534845924
0.114846373443
0.115888491096
0.116563655993
0.117169857989
0.117708772917
0.118182649059
0.118594274329
0.11894720271
0.11924545008
0.119492772022
0.119694465597
0.119858606653
0.119994402465
0.120112775972
0.120228243556
0.120359967335
0.120533534491
0.120783712681
0.12115872471
0.121727079242
0.122588914421
0.12418534686
0.128145295612
0.12992348036
0.137301816776
0.142474927377
0.150517179538
0.160039872649
0.164725153567
0.169156862401
0.178065467532
0.185133898327
0.18885367151
0.197534801718
0.203752387395
0.209976640169
0.217985777994
0.220451861179
0.227800017363
0.233469419043
0.239162321085
0.245812956055
0.250116479731
0.257418532245
0.260628715626
0.268147608783
0.270687722586
0.277942837037
0.280289918026
0.286915844308
0.2894938146
0.294909283153
0.298192881077
0.301696543897
0.3063393475
0.310228072832
0.315479564141
0.31767969181
0.320408919587
0.325609479851
0.327833606182
0.331034654493
0.335791573558
0.33690673376
0.339643549629
0.341926289547
0.344698910525
0.347084206728
0.349337489501
0.351035017189
0.354166609402
0.355481001927
0.357404687209
0.359230436065
0.360942800367
0.363269240554
0.364162095678
0.365615423312
0.366911644918
0.368082828591
0.369114235958
0.369970729252
0.370691273464
0.371320490053
0.371803163526
0.372540984874
0.372535660991
0.372634217068
0.269091225068
)
;

boundaryField
{
    ground
    {
        type            zeroGradient;
    }
    top
    {
        type            zeroGradient;
    }
    left
    {
        type            zeroGradient;
    }
    right
    {
        type            zeroGradient;
    }
    defaultFaces
    {
        type            empty;
    }
}


// ************************************************************************* //