/*--------------------------------*- C++ -*----------------------------------*| =========                 |                                                 |
| \      /  F ield         | OpenFOAM: The Open Source CFD Toolbox           |
|  \    /   O peration     | Version:  dev                                   |
|   \  /    A nd           | Web:      www.OpenFOAM.org                      |
|    \/     M anipulation  |                                                 |
\*---------------------------------------------------------------------------*/
FoamFile
{
    version     2.0;
    format      ascii;
    class       volScalarField;
    location    "0";
    object      sigmaRhoInitial.buoyant;
}
// * * * * * * * * * * * * * * * * * * * * * * * * * * * * * * * * * * * * * //

dimensions      [1 -3 0 0 0 0 0];

internalField   nonuniform List<scalar> 
100
(
0.115392147756
0.35970352144
0.356972053906
0.354152028911
0.350138504783
0.345617990141
0.341656626476
0.337662179414
0.333531124638
0.329264843016
0.324863033058
0.321156121344
0.315659936725
0.311004702005
0.306183103063
0.301235432723
0.296953957938
0.291093042351
0.285919025017
0.280624234918
0.274391957943
0.269913958163
0.264444972777
0.25832899387
0.253424803644
0.247828804012
0.2407973004
0.236668112776
0.232069834305
0.22546624972
0.219886497794
0.213337725586
0.208858399076
0.204229804103
0.198164073551
0.194809873119
0.187212826693
0.181711420055
0.178325344735
0.177425740158
0.181895507306
0.190851462541
0.199499985461
0.194564844017
0.183128059819
0.174623931116
0.166142358615
0.164671473363
0.159805768466
0.156945613905
0.15579225973
0.155344273994
0.155845509694
0.157175533934
0.159121719963
0.163934188118
0.166798968969
0.175093790945
0.189089497121
0.196835903801
0.192757047483
0.189750588801
0.1844282622
0.179674753711
0.173553933427
0.170015671306
0.163337877353
0.160304355845
0.15291300407
0.149325706535
0.144345100872
0.139171787165
0.136470834121
0.135076514165
0.136445165805
0.136652266322
0.137177012069
0.138315960696
0.138977034536
0.139993454019
0.139938736176
0.140190185474
0.140787887782
0.140339574503
0.140247512744
0.139509902818
0.139724704531
0.13933248198
0.138822230917
0.138201480468
0.137611766154
0.136689671109
0.135810326192
0.134836193448
0.133771890454
0.132621969955
0.131390279671
0.130080774331
0.128819420275
0.128897988119
)
;

boundaryField
{
    ground
    {
        type            zeroGradient;
    }
    top
    {
        type            zeroGradient;
    }
    left
    {
        type            zeroGradient;
    }
    right
    {
        type            zeroGradient;
    }
    defaultFaces
    {
        type            empty;
    }
}


// ************************************************************************* //