/*--------------------------------*- C++ -*----------------------------------*| =========                 |                                                 |
| \      /  F ield         | OpenFOAM: The Open Source CFD Toolbox           |
|  \    /   O peration     | Version:  dev                                   |
|   \  /    A nd           | Web:      www.OpenFOAM.org                      |
|    \/     M anipulation  |                                                 |
\*---------------------------------------------------------------------------*/
FoamFile
{
    version     2.0;
    format      ascii;
    class       volScalarField;
    location    "0";
    object      sigmaRhoInitial.buoyant;
}
// * * * * * * * * * * * * * * * * * * * * * * * * * * * * * * * * * * * * * //

dimensions      [1 -3 0 0 0 0 0];

internalField   nonuniform List<scalar> 
100
(
0.115384593489
0.131923999682
0.129502018008
0.126096647301
0.123956940449
0.122780272853
0.122235714176
0.121963974117
0.121784466713
0.121614342386
0.120424837841
0.12093587087
0.120865984415
0.120534950032
0.120123159195
0.119634400693
0.119073299686
0.1184453047
0.117757100896
0.117014940321
0.116224619289
0.115391679196
0.114521420342
0.11362947756
0.112727534933
0.111827276256
0.110944453926
0.110099788451
0.10932040345
0.108642631587
0.108116676672
0.107814306106
0.107841942375
0.10921003651
0.110146053178
0.112911094417
0.118632397753
0.125637476059
0.12876709322
0.131597458255
0.137511596364
0.142602060678
0.144573754467
0.149569199423
0.154059186371
0.155238344453
0.160009867946
0.163288435802
0.166137905843
0.170449891196
0.17039145949
0.17414315373
0.176165973498
0.178712729384
0.181044221113
0.182682610994
0.185050422586
0.186091927818
0.18820089736
0.188963922504
0.190513683758
0.191322537297
0.191991411707
0.193174793901
0.193375221675
0.195287134706
0.195074148029
0.195688094299
0.195780310622
0.195959703879
0.197014638503
0.196010730528
0.195854823121
0.196474659277
0.195248649136
0.194784012245
0.194023199726
0.193576924159
0.192856425816
0.192043258177
0.190714106005
0.19017574324
0.189138944397
0.188011221754
0.186795723991
0.185498257651
0.18424985875
0.182694053023
0.181203138011
0.179650561519
0.178044256024
0.176388360881
0.17468644358
0.172943930082
0.17116395522
0.169352434809
0.167512783691
0.165647124618
0.163921108054
0.120443302988
)
;

boundaryField
{
    ground
    {
        type            zeroGradient;
    }
    top
    {
        type            zeroGradient;
    }
    left
    {
        type            zeroGradient;
    }
    right
    {
        type            zeroGradient;
    }
    defaultFaces
    {
        type            empty;
    }
}


// ************************************************************************* //