/*--------------------------------*- C++ -*----------------------------------*| =========                 |                                                 |
| \      /  F ield         | OpenFOAM: The Open Source CFD Toolbox           |
|  \    /   O peration     | Version:  dev                                   |
|   \  /    A nd           | Web:      www.OpenFOAM.org                      |
|    \/     M anipulation  |                                                 |
\*---------------------------------------------------------------------------*/
FoamFile
{
    version     2.0;
    format      ascii;
    class       volScalarField;
    location    "0";
    object      sigma.stable;
}
// * * * * * * * * * * * * * * * * * * * * * * * * * * * * * * * * * * * * * //

dimensions      [0 0 0 0 0 0 0];

internalField   nonuniform List<scalar> 
100
(
0.500195951172
0.501273157867
0.504367271994
0.510736029073
0.521542804196
0.537494083162
0.556704581274
0.576844726314
0.59690599076
0.616228740089
0.634304824234
0.650707801776
0.664988448467
0.676725798669
0.685885235061
0.69332709866
0.699549961895
0.704829391193
0.709388935171
0.713410454825
0.71706148945
0.720517401105
0.723964737932
0.727493597205
0.731111130174
0.734809734903
0.738581639227
0.742433943724
0.746394263631
0.750404814932
0.754414309465
0.758451341411
0.762545476739
0.766657937901
0.770886780037
0.774745264855
0.779575025265
0.784508535549
0.78680787422
0.78633732659
0.777321980613
0.767326110688
0.755346153188
0.755110284595
0.77323559523
0.780042168749
0.781377480679
0.788180382864
0.784538835391
0.790553460661
0.79405161641
0.794475844054
0.790840881488
0.782272292655
0.774932328241
0.772683657741
0.764593088397
0.747509836827
0.723593677833
0.709641618701
0.714757778878
0.717821782178
0.717821782178
0.727571502715
0.727722772277
0.736157428262
0.737623762376
0.747003417916
0.748298303907
0.757352648121
0.761596978967
0.766419008691
0.769680154517
0.769307543452
0.766085141036
0.761951936268
0.757788749272
0.753851616973
0.750060691472
0.746404571958
0.74290587801
0.739516764197
0.736250808046
0.733127633121
0.730136262072
0.727260564254
0.724255442106
0.72069832997
0.716207749663
0.710356966765
0.702548315937
0.691935818252
0.676768528173
0.655280835041
0.628029587258
0.596127058674
0.561323242452
0.527632303882
0.506974648062
0.500520993885
)
;

boundaryField
{
    ground
    {
        type            zeroGradient;
    }
    top
    {
        type            zeroGradient;
    }
    left
    {
        type            zeroGradient;
    }
    right
    {
        type            zeroGradient;
    }
    defaultFaces
    {
        type            empty;
    }
}


// ************************************************************************* //