/*--------------------------------*- C++ -*----------------------------------*| =========                 |                                                 |
| \      /  F ield         | OpenFOAM: The Open Source CFD Toolbox           |
|  \    /   O peration     | Version:  dev                                   |
|   \  /    A nd           | Web:      www.OpenFOAM.org                      |
|    \/     M anipulation  |                                                 |
\*---------------------------------------------------------------------------*/
FoamFile
{
    version     2.0;
    format      ascii;
    class       volScalarField;
    location    "0";
    object      sigmaRhoExpected.buoyant;
}
// * * * * * * * * * * * * * * * * * * * * * * * * * * * * * * * * * * * * * //

dimensions      [1 -3 0 0 0 0 0];

internalField   nonuniform List<scalar> 
100
(
0.576711370765
0.570798885388
0.562680383839
0.550940165202
0.534380204817
0.512357502405
0.487044028852
0.461074515295
0.435583799244
0.411260876541
0.38861533395
0.368099466678
0.350101332677
0.334986737388
0.32276136545
0.31245252522
0.303518913923
0.295656742498
0.288610187401
0.282180326528
0.276190773688
0.270468605271
0.264812673202
0.259147649145
0.253472565512
0.247797698108
0.24212314556
0.23644557151
0.23074623927
0.225078651942
0.219478782881
0.213929151884
0.208429597495
0.202964854478
0.197469164395
0.192376124089
0.186532112428
0.18072262128
0.176967545934
0.17564133804
0.181130089161
0.18741363888
0.195253327807
0.194094865016
0.177897923865
0.170817048971
0.167934248354
0.161346463951
0.162821783434
0.15610871775
0.151979640653
0.15018455001
0.15225512183
0.157043731514
0.160919922023
0.160932573398
0.163416329547
0.173227817034
0.187666802588
0.196111639529
0.192425094816
0.187144143564
0.18523839604
0.177499652934
0.175098638614
0.168747259099
0.165254277228
0.158111903248
0.155553902161
0.148170938916
0.144352105327
0.139638244527
0.1362367358
0.134855040506
0.135228817705
0.136179605136
0.137150237932
0.137962798982
0.138663560882
0.139251122956
0.139696612397
0.140011051919
0.140208146576
0.140297846354
0.140291866209
0.140206316511
0.140159825039
0.140359724928
0.140979631435
0.142234927631
0.144390450669
0.147800151559
0.153271763604
0.161550458525
0.17228834049
0.184917007264
0.198548821451
0.211353435438
0.218047930011
0.218282090649
)
;

boundaryField
{
    ground
    {
        type            zeroGradient;
    }
    top
    {
        type            zeroGradient;
    }
    left
    {
        type            zeroGradient;
    }
    right
    {
        type            zeroGradient;
    }
    defaultFaces
    {
        type            empty;
    }
}


// ************************************************************************* //