/*--------------------------------*- C++ -*----------------------------------*| =========                 |                                                 |
| \      /  F ield         | OpenFOAM: The Open Source CFD Toolbox           |
|  \    /   O peration     | Version:  dev                                   |
|   \  /    A nd           | Web:      www.OpenFOAM.org                      |
|    \/     M anipulation  |                                                 |
\*---------------------------------------------------------------------------*/
FoamFile
{
    version     2.0;
    format      ascii;
    class       volScalarField;
    location    "0";
    object      sigmaRhoExpected.buoyant;
}
// * * * * * * * * * * * * * * * * * * * * * * * * * * * * * * * * * * * * * //

dimensions      [1 -3 0 0 0 0 0];

internalField   nonuniform List<scalar> 
100
(
0.371308097575
0.36829829563
0.354063149036
0.351174292539
0.348299569806
0.345438957577
0.342592431553
0.339759969254
0.336941542877
0.334137128276
0.331346700764
0.328570230188
0.315464728878
0.312803353874
0.310155414607
0.307520884639
0.294903182316
0.292380892152
0.289871489457
0.287374943039
0.275234074021
0.272846898345
0.270472037746
0.258702321925
0.256434447288
0.25417832844
0.24277294563
0.240621381564
0.238480977182
0.227433067398
0.225394716892
0.214607810548
0.21266951803
0.210741100708
0.200299691293
0.198468548968
0.188279260646
0.186541868937
0.184805150225
0.183048691909
0.181246487154
0.187438536679
0.19355291919
0.207371464675
0.189932506449
0.172797131242
0.17115295484
0.169505149969
0.160425455828
0.15887874142
0.164647105033
0.163054141676
0.161478079582
0.159918133406
0.158374759809
0.156844744912
0.155323569227
0.167472184946
0.165822413861
0.177571143073
0.195696226924
0.193718239732
0.191749815789
0.183369275927
0.181483397396
0.173316347687
0.171513519281
0.163556380426
0.161836974159
0.154085793003
0.152450865984
0.144902848181
0.137486691042
0.136005605383
0.134539205895
0.133099132892
0.137324213008
0.135909513151
0.140019423818
0.13858756117
0.137162055512
0.141043839036
0.139516458418
0.137978645957
0.141595942041
0.140017836
0.138450217865
0.136893083233
0.135346421677
0.138675202247
0.13709398317
0.135523573059
0.133963953648
0.132415105135
0.130877008309
0.131618544523
0.132317590102
0.130758795857
0.129211039852
0.127674298924
)
;

boundaryField
{
    ground
    {
        type            zeroGradient;
    }
    top
    {
        type            zeroGradient;
    }
    left
    {
        type            zeroGradient;
    }
    right
    {
        type            zeroGradient;
    }
    defaultFaces
    {
        type            empty;
    }
}


// ************************************************************************* //