/*--------------------------------*- C++ -*----------------------------------*| =========                 |                                                 |
| \      /  F ield         | OpenFOAM: The Open Source CFD Toolbox           |
|  \    /   O peration     | Version:  dev                                   |
|   \  /    A nd           | Web:      www.OpenFOAM.org                      |
|    \/     M anipulation  |                                                 |
\*---------------------------------------------------------------------------*/
FoamFile
{
    version     2.0;
    format      ascii;
    class       volScalarField;
    location    "0";
    object      sigma.stable;
}
// * * * * * * * * * * * * * * * * * * * * * * * * * * * * * * * * * * * * * //

dimensions      [0 0 0 0 0 0 0];

internalField   nonuniform List<scalar> 
100
(
0.501701122458
0.521325377256
0.568714986914
0.620158377475
0.665089799991
0.698245854996
0.7168814925
0.726863472007
0.734343926885
0.742190379763
0.749861435726
0.756039668951
0.759982058876
0.762101781163
0.762498552974
0.761345963619
0.759223490229
0.756784897509
0.755058727556
0.754459210563
0.753102668916
0.750441631301
0.746560112389
0.742143062652
0.738273967525
0.735896695598
0.735294117647
0.735294117647
0.735294117647
0.735294117647
0.735294117647
0.735294117647
0.735294117647
0.735294117647
0.735518446025
0.738423884432
0.744495974456
0.750888326313
0.754311277415
0.754901944558
0.755622240059
0.755969854304
0.75120010076
0.741881761933
0.729910555135
0.717538287654
0.70600715128
0.694785315038
0.684024087723
0.673845685111
0.664148533525
0.654854526799
0.64599842133
0.637580650614
0.629582294079
0.621985767554
0.614770185368
0.607907023058
0.60138224228
0.595165247563
0.58921918776
0.583545804613
0.578141880096
0.572963075298
0.567978837198
0.563163265881
0.55847842151
0.553896724388
0.549311708891
0.544524990044
0.539546175717
0.534532604321
0.529649065706
0.525112083135
0.521271412659
0.518098211284
0.515458424493
0.513271021599
0.511484420026
0.510015969521
0.508767684409
0.507713604034
0.506839322649
0.506081277795
0.505422240941
0.504839601025
0.504290603441
0.503823313971
0.50340651969
0.502995252465
0.502622831546
0.502305272735
0.502007925333
0.501688953208
0.501403839849
0.501165498386
0.500904267186
0.500637566082
0.500386722955
0.500040984786
)
;

boundaryField
{
    ground
    {
        type            zeroGradient;
    }
    top
    {
        type            zeroGradient;
    }
    left
    {
        type            zeroGradient;
    }
    right
    {
        type            zeroGradient;
    }
    defaultFaces
    {
        type            empty;
    }
}


// ************************************************************************* //