/*--------------------------------*- C++ -*----------------------------------*| =========                 |                                                 |
| \      /  F ield         | OpenFOAM: The Open Source CFD Toolbox           |
|  \    /   O peration     | Version:  dev                                   |
|   \  /    A nd           | Web:      www.OpenFOAM.org                      |
|    \/     M anipulation  |                                                 |
\*---------------------------------------------------------------------------*/
FoamFile
{
    version     2.0;
    format      ascii;
    class       volScalarField;
    location    "0";
    object      sigmaRhoInitial.stable;
}
// * * * * * * * * * * * * * * * * * * * * * * * * * * * * * * * * * * * * * //

dimensions      [1 -3 0 0 0 0 0];

internalField   nonuniform List<scalar> 
100
(
0.788327717279
0.781937663215
0.781198698163
0.774824960032
0.768482458871
0.762171142202
0.755890957023
0.74964185116
0.743423774613
0.737236676304
0.731080502779
0.730170528509
0.729203674993
0.723052707733
0.716932900648
0.710844200906
0.714783103441
0.708670958947
0.702590201658
0.696540775304
0.700179761099
0.694109062148
0.68806995843
0.691469519981
0.68541095971
0.67938425036
0.682550297025
0.676505904
0.670493604979
0.673431929077
0.667403666168
0.670166775344
0.664123915379
0.658113629311
0.66065855336
0.654635153403
0.65701137818
0.650975736186
0.644971721335
0.6471232263
0.633032544066
0.619127938492
0.605414469597
0.584084433395
0.594063038514
0.603782193897
0.598052571319
0.592366042158
0.594151049675
0.588445106984
0.57546813438
0.57714650087
0.564365812755
0.55886458119
0.553395978572
0.547960030862
0.535660325578
0.52351880114
0.511553366036
0.506430478448
0.474835818798
0.470064836105
0.465322679715
0.467031731242
0.462284382006
0.463857725462
0.459105471553
0.460547031961
0.45578896449
0.457101695122
0.458318683822
0.453520840663
0.454611561744
0.449805341842
0.445028016994
0.440280970302
0.429943287213
0.425317164042
0.41522044141
0.410713509236
0.406235881801
0.396464996092
0.392104322741
0.387772401378
0.378321107923
0.374103875736
0.369914841797
0.365753947044
0.361621133369
0.352651353632
0.348629988006
0.344636145195
0.34066976181
0.336730774981
0.332819123014
0.326665837681
0.320592966332
0.316815777128
0.313065298604
0.309341468018
)
;

boundaryField
{
    ground
    {
        type            zeroGradient;
    }
    top
    {
        type            zeroGradient;
    }
    left
    {
        type            zeroGradient;
    }
    right
    {
        type            zeroGradient;
    }
    defaultFaces
    {
        type            empty;
    }
}


// ************************************************************************* //