/*--------------------------------*- C++ -*----------------------------------*| =========                 |                                                 |
| \      /  F ield         | OpenFOAM: The Open Source CFD Toolbox           |
|  \    /   O peration     | Version:  dev                                   |
|   \  /    A nd           | Web:      www.OpenFOAM.org                      |
|    \/     M anipulation  |                                                 |
\*---------------------------------------------------------------------------*/
FoamFile
{
    version     2.0;
    format      ascii;
    class       volScalarField;
    location    "0";
    object      sigmaRhoExpected.stable;
}
// * * * * * * * * * * * * * * * * * * * * * * * * * * * * * * * * * * * * * //

dimensions      [1 -3 0 0 0 0 0];

internalField   nonuniform List<scalar> 
100
(
0.578472754124
0.577233846665
0.577384129127
0.579741163506
0.584886239154
0.591245344163
0.592582814819
0.590990034904
0.588542670685
0.585749367569
0.582838852902
0.579897852821
0.576997599666
0.574161896487
0.571444649277
0.568791778905
0.566282040454
0.563898723633
0.561676420051
0.559527982377
0.557553477116
0.555666814631
0.553910621625
0.552355124999
0.550768608836
0.549478233365
0.548243980066
0.546936114106
0.546117318888
0.545055732533
0.54434652125
0.544673377846
0.541507576857
0.536948443605
0.532149919411
0.525991904963
0.514922203142
0.529396144612
0.539250857686
0.539897437883
0.53924002992
0.5326623238
0.526109822363
0.51299144256
0.500752308881
0.495064492546
0.488779832445
0.475729116041
0.457084686197
0.442654131384
0.421346576547
0.387979354043
0.357703890635
0.358218259324
0.356023764706
0.352551794118
0.361994702537
0.359179470588
0.364961161944
0.365363696078
0.372521897294
0.37112844585
0.38009760278
0.380913252144
0.385231063617
0.38963547359
0.390239318008
0.389053738114
0.383393484428
0.376046180057
0.368538372989
0.36147324838
0.354621210916
0.34808036671
0.341760633725
0.33565507135
0.329799977848
0.324112523276
0.318647283142
0.313343324162
0.308227694506
0.303274525166
0.298464501205
0.293793320023
0.289266766431
0.284869345931
0.280583325154
0.276394555491
0.272296926435
0.268256723174
0.264255324536
0.260237711551
0.256107521583
0.251650069434
0.246003552079
0.238908052342
0.232662912835
0.227424674959
0.223003346721
0.219118601482
)
;

boundaryField
{
    ground
    {
        type            zeroGradient;
    }
    top
    {
        type            zeroGradient;
    }
    left
    {
        type            zeroGradient;
    }
    right
    {
        type            zeroGradient;
    }
    defaultFaces
    {
        type            empty;
    }
}


// ************************************************************************* //