/*--------------------------------*- C++ -*----------------------------------*| =========                 |                                                 |
| \      /  F ield         | OpenFOAM: The Open Source CFD Toolbox           |
|  \    /   O peration     | Version:  dev                                   |
|   \  /    A nd           | Web:      www.OpenFOAM.org                      |
|    \/     M anipulation  |                                                 |
\*---------------------------------------------------------------------------*/
FoamFile
{
    version     2.0;
    format      ascii;
    class       volScalarField;
    location    "0";
    object      sigma.stable;
}
// * * * * * * * * * * * * * * * * * * * * * * * * * * * * * * * * * * * * * //

dimensions      [0 0 0 0 0 0 0];

internalField   nonuniform List<scalar> 
100
(
0.9
0.884710227554
0.885891706835
0.887965372545
0.888938574623
0.889057350467
0.888602307033
0.887889719729
0.887081208779
0.886252712961
0.88637421047
0.884886370018
0.883935569058
0.883227710425
0.88259429782
0.88203460879
0.881546976224
0.881128717959
0.880775808618
0.880483523996
0.880249276393
0.88007035427
0.879937773851
0.879839322618
0.879763766363
0.879697864623
0.879623636478
0.879517157354
0.879346442897
0.879067966285
0.878621015328
0.877918314915
0.876829980388
0.874181233833
0.871986523603
0.867607135676
0.859648329468
0.850007375873
0.8448551785
0.839971066501
0.831212853141
0.823317371419
0.819182537617
0.811161019207
0.803640918871
0.80024786991
0.792133592268
0.785832414538
0.779989368551
0.77208941183
0.769948942517
0.762585012814
0.757470034002
0.75153961676
0.745808307331
0.740960648408
0.734986775774
0.730827311898
0.725040637022
0.721139856601
0.716004074401
0.711896755391
0.707936158592
0.703121677376
0.699752746683
0.693648180041
0.690804229588
0.686596455747
0.683165139999
0.679539779809
0.674411988145
0.672635555667
0.669411932123
0.664818267266
0.663331534132
0.660508964934
0.658170616087
0.655245172033
0.652773865016
0.650441758813
0.649032975964
0.64614714731
0.644160762677
0.642329312855
0.640652347435
0.639124151366
0.637492297474
0.636462888609
0.635307598424
0.634279904154
0.633368089894
0.63256774158
0.631875385129
0.631283363691
0.630788556365
0.630381570001
0.63005804744
0.629816264049
0.62928454022
0.724331360238
)
;

boundaryField
{
    ground
    {
        type            zeroGradient;
    }
    top
    {
        type            zeroGradient;
    }
    left
    {
        type            zeroGradient;
    }
    right
    {
        type            zeroGradient;
    }
    defaultFaces
    {
        type            empty;
    }
}


// ************************************************************************* //