/*--------------------------------*- C++ -*----------------------------------*| =========                 |                                                 |
| \      /  F ield         | OpenFOAM: The Open Source CFD Toolbox           |
|  \    /   O peration     | Version:  dev                                   |
|   \  /    A nd           | Web:      www.OpenFOAM.org                      |
|    \/     M anipulation  |                                                 |
\*---------------------------------------------------------------------------*/
FoamFile
{
    version     2.0;
    format      ascii;
    class       volScalarField;
    location    "0";
    object      sigmaRhoExpected.stable;
}
// * * * * * * * * * * * * * * * * * * * * * * * * * * * * * * * * * * * * * //

dimensions      [1 -3 0 0 0 0 0];

internalField   nonuniform List<scalar> 
100
(
0.782615493865
0.776271747777
0.781198861944
0.774825127312
0.768482626366
0.762171307918
0.755891119652
0.749642010392
0.743423929957
0.737236828065
0.731080654725
0.724955359515
0.729203853314
0.723052901099
0.716933112936
0.710844434845
0.714783365594
0.708671237034
0.7025904902
0.696541070223
0.700180065749
0.694109370591
0.688070270231
0.691469837125
0.685411274381
0.679384559686
0.682550603713
0.676506205741
0.670493900701
0.673432223294
0.667403960727
0.670167074494
0.664124212112
0.658113916371
0.660658833043
0.654635421524
0.657011646407
0.650976002646
0.644972013955
0.638994551121
0.633033139172
0.619128394873
0.605414687111
0.584084442796
0.594062961415
0.603782066889
0.59805245842
0.592365903071
0.594150909871
0.588444859653
0.57546788121
0.569899977181
0.564365370402
0.558864111579
0.553395556465
0.54795967858
0.542555677168
0.52351846842
0.518314054341
0.499745264847
0.474834795666
0.470063861079
0.465321825799
0.467030606787
0.462283428485
0.463856528809
0.459104546453
0.460545887482
0.455788239787
0.457100829289
0.452335299079
0.453520480269
0.45461123257
0.449805275687
0.445027973917
0.440280930967
0.429943254921
0.425317133021
0.415220414808
0.410713488997
0.406235872141
0.396465002733
0.392104338782
0.387772423995
0.378321144756
0.374103917405
0.369914881407
0.365753983531
0.361621165256
0.3526513838
0.348630007087
0.344636151168
0.340669756224
0.336730759497
0.332819098368
0.326665810958
0.32059293672
0.316815740574
0.313065260827
0.309341432067
)
;

boundaryField
{
    ground
    {
        type            zeroGradient;
    }
    top
    {
        type            zeroGradient;
    }
    left
    {
        type            zeroGradient;
    }
    right
    {
        type            zeroGradient;
    }
    defaultFaces
    {
        type            empty;
    }
}


// ************************************************************************* //