/*--------------------------------*- C++ -*----------------------------------*| =========                 |                                                 |
| \      /  F ield         | OpenFOAM: The Open Source CFD Toolbox           |
|  \    /   O peration     | Version:  dev                                   |
|   \  /    A nd           | Web:      www.OpenFOAM.org                      |
|    \/     M anipulation  |                                                 |
\*---------------------------------------------------------------------------*/
FoamFile
{
    version     2.0;
    format      ascii;
    class       volScalarField;
    location    "0";
    object      sigmaRhoExpected.buoyant;
}
// * * * * * * * * * * * * * * * * * * * * * * * * * * * * * * * * * * * * * //

dimensions      [1 -3 0 0 0 0 0];

internalField   nonuniform List<scalar> 
100
(
0.115384595425
0.13202635602
0.129611186536
0.12614203411
0.123987971055
0.122799502783
0.122249011519
0.121975198459
0.121795279671
0.12162526165
0.120438362153
0.120961049034
0.120878492129
0.120547769336
0.120136347438
0.119647882258
0.119086861912
0.1184586645
0.117769987412
0.117027153846
0.116235949383
0.115402012805
0.11453045342
0.113636921334
0.112733319419
0.111831395363
0.110946879257
0.110100370036
0.109318789707
0.108638289612
0.108109013215
0.107802761819
0.107825870265
0.10915205735
0.11010811722
0.112813141921
0.118574291502
0.125539129157
0.128675905016
0.131513047259
0.137465653312
0.142523373334
0.144497977795
0.149528474875
0.153987547446
0.155164012035
0.159963852515
0.163186076262
0.166072511921
0.170307053117
0.170223653606
0.174044241363
0.17595901074
0.178599591137
0.180817299858
0.182563668127
0.184801973256
0.185962183117
0.187935444522
0.18883572869
0.190259208285
0.191205146913
0.191773042013
0.193081695627
0.19320434768
0.195201675595
0.194990697672
0.195498193167
0.195683213534
0.195855819742
0.196777647304
0.195911497332
0.195769300658
0.196316646636
0.195210773504
0.194778679532
0.1940879873
0.193639378943
0.192953513764
0.19217071434
0.191111533106
0.190372744639
0.189364195364
0.188262994074
0.18707177197
0.185860248712
0.184990830948
0.183014897223
0.181522197462
0.179968634065
0.178366193018
0.176726874125
0.175062202356
0.173376150152
0.171669792823
0.169937815189
0.16826057968
0.166533254529
0.164534809611
0.120804198633
)
;

boundaryField
{
    ground
    {
        type            zeroGradient;
    }
    top
    {
        type            zeroGradient;
    }
    left
    {
        type            zeroGradient;
    }
    right
    {
        type            zeroGradient;
    }
    defaultFaces
    {
        type            empty;
    }
}


// ************************************************************************* //