/*--------------------------------*- C++ -*----------------------------------*| =========                 |                                                 |
| \      /  F ield         | OpenFOAM: The Open Source CFD Toolbox           |
|  \    /   O peration     | Version:  dev                                   |
|   \  /    A nd           | Web:      www.OpenFOAM.org                      |
|    \/     M anipulation  |                                                 |
\*---------------------------------------------------------------------------*/
FoamFile
{
    version     2.0;
    format      ascii;
    class       volScalarField;
    location    "0";
    object      sigmaRhoInitial.buoyant;
}
// * * * * * * * * * * * * * * * * * * * * * * * * * * * * * * * * * * * * * //

dimensions      [1 -3 0 0 0 0 0];

internalField   nonuniform List<scalar> 
100
(
0.36559578265
0.36263228858
0.354063218139
0.351174363057
0.348299636667
0.345439017485
0.342592483998
0.339760012772
0.336941581449
0.33413716387
0.331346734831
0.323354944173
0.31546479156
0.312803432308
0.310155512552
0.307521003765
0.294903329886
0.292381058519
0.289871669189
0.287375128689
0.275234269139
0.272847096131
0.270472234906
0.2587025198
0.256434637475
0.254178511484
0.242773124248
0.240621555371
0.238481144805
0.227433229974
0.22539487605
0.214607960218
0.212669653963
0.210741211055
0.200299772232
0.198468595759
0.188279264538
0.186541769097
0.18480466954
0.174918074207
0.181243865569
0.1874371122
0.193552282635
0.207371028207
0.189932007235
0.17279655156
0.17115233678
0.169504404366
0.160424705958
0.158878082515
0.164646751529
0.155808078788
0.161478569524
0.159919079184
0.158376089492
0.156846178527
0.162220441425
0.167472931897
0.172583723305
0.170886122147
0.195695044694
0.193716922585
0.191748504337
0.183367590619
0.181481791014
0.173314430446
0.171511818468
0.163554385948
0.161835321322
0.154083901506
0.146466330203
0.144901210659
0.137484946888
0.136004139541
0.134538225383
0.133099566196
0.13732667156
0.135913073677
0.140023587459
0.138592024359
0.137165922801
0.141045911311
0.139516839427
0.137978598915
0.141595879224
0.140017774424
0.138450157742
0.136893017874
0.13534634505
0.138675117835
0.137093880318
0.135523447425
0.133963804628
0.132414936127
0.130876823006
0.131618350896
0.132317391596
0.130758591783
0.129210835069
0.127674094419
)
;

boundaryField
{
    ground
    {
        type            zeroGradient;
    }
    top
    {
        type            zeroGradient;
    }
    left
    {
        type            zeroGradient;
    }
    right
    {
        type            zeroGradient;
    }
    defaultFaces
    {
        type            empty;
    }
}


// ************************************************************************* //