/*--------------------------------*- C++ -*----------------------------------*| =========                 |                                                 |
| \      /  F ield         | OpenFOAM: The Open Source CFD Toolbox           |
|  \    /   O peration     | Version:  dev                                   |
|   \  /    A nd           | Web:      www.OpenFOAM.org                      |
|    \/     M anipulation  |                                                 |
\*---------------------------------------------------------------------------*/
FoamFile
{
    version     2.0;
    format      ascii;
    class       volScalarField;
    location    "0";
    object      sigmaRhoInitial.stable;
}
// * * * * * * * * * * * * * * * * * * * * * * * * * * * * * * * * * * * * * //

dimensions      [1 -3 0 0 0 0 0];

internalField   nonuniform List<scalar> 
100
(
1.0384613414
1.01256592119
1.00567253488
0.99980198601
0.992704693411
0.984683239209
0.976068882799
0.967221525623
0.958322595342
0.949455955998
0.941651524722
0.932190633287
0.923356011576
0.914829209252
0.906431104803
0.898159107255
0.890009724979
0.881978481647
0.874059660341
0.866246940898
0.858536088935
0.850922930365
0.843397445994
0.835946556974
0.828558573227
0.8212202349
0.813914302984
0.80661864497
0.799304544677
0.791933921716
0.784454753408
0.77679346844
0.768841944182
0.759588212311
0.750803547289
0.740225904126
0.726727485507
0.711980657956
0.701145007874
0.690645165474
0.677099806842
0.664419458198
0.654900307063
0.642399827532
0.63044715254
0.621847575491
0.609697824049
0.599083140746
0.588939588924
0.577375476385
0.570223656129
0.559303505397
0.55015394449
0.540522082471
0.531147039132
0.522506571504
0.51317807515
0.505217197093
0.496230085551
0.48863006803
0.480284382587
0.472720591305
0.46533768365
0.457481090644
0.450648192221
0.442144466162
0.435806214738
0.42868152258
0.422118969722
0.415509566131
0.408064864032
0.402719163964
0.396565539086
0.389676162392
0.384672539597
0.378947366949
0.373558108868
0.367893968126
0.362543619789
0.357325425509
0.352662615338
0.347248330046
0.342371709619
0.3376251559
0.33300543418
0.328506651681
0.323997685833
0.319834924297
0.315645982776
0.311557326486
0.307560935943
0.303652584521
0.299828617284
0.296083520635
0.292414071778
0.288814266741
0.285280602196
0.281810866694
0.278239320829
0.316457306486
)
;

boundaryField
{
    ground
    {
        type            zeroGradient;
    }
    top
    {
        type            zeroGradient;
    }
    left
    {
        type            zeroGradient;
    }
    right
    {
        type            zeroGradient;
    }
    defaultFaces
    {
        type            empty;
    }
}


// ************************************************************************* //