/*--------------------------------*- C++ -*----------------------------------*| =========                 |                                                 |
| \      /  F ield         | OpenFOAM: The Open Source CFD Toolbox           |
|  \    /   O peration     | Version:  dev                                   |
|   \  /    A nd           | Web:      www.OpenFOAM.org                      |
|    \/     M anipulation  |                                                 |
\*---------------------------------------------------------------------------*/
FoamFile
{
    version     2.0;
    format      ascii;
    class       volScalarField;
    location    "0";
    object      sigmaRhoExpected.buoyant;
}
// * * * * * * * * * * * * * * * * * * * * * * * * * * * * * * * * * * * * * //

dimensions      [1 -3 0 0 0 0 0];

internalField   nonuniform List<scalar> 
100
(
0.115392156731
0.360008614565
0.357241356518
0.354448140495
0.350336497802
0.345934452304
0.341833497176
0.337843439241
0.333716311895
0.329452921439
0.32505496914
0.320521953176
0.315495413527
0.311199792061
0.306383991683
0.301442939592
0.297459069448
0.291302260371
0.286134038362
0.280845667403
0.274893708139
0.270134718386
0.264672824744
0.258832590449
0.25365126126
0.248063143939
0.241296480418
0.236900974263
0.232579698792
0.225697750617
0.220126825048
0.213838206153
0.209095892225
0.204741892046
0.198396858754
0.195050675848
0.187686046807
0.181941000344
0.178520190397
0.177531421118
0.181950534285
0.190845626099
0.199519322611
0.195175936738
0.183602771503
0.174932324511
0.166566942517
0.164617702806
0.159960841265
0.157373733042
0.155869188241
0.155375810763
0.155830992959
0.157117829123
0.159027654351
0.163167214301
0.166502599176
0.174037818158
0.187499963487
0.196928131624
0.193044497461
0.190099921204
0.183210625
0.179984845462
0.174262570426
0.17033399073
0.164004752585
0.160027975607
0.153183818095
0.149913146322
0.144618294198
0.139698477551
0.136614868062
0.135113955879
0.136404220909
0.136615899639
0.137105491701
0.138278790937
0.13893891993
0.139911463078
0.139899316626
0.140151554692
0.140694732709
0.140296440184
0.140202881998
0.139814167574
0.140143094985
0.139281037519
0.138769400742
0.138147068287
0.137464940234
0.136628861814
0.135747605759
0.134771386202
0.133705772709
0.132555295954
0.131324520006
0.130017176464
0.128718645791
0.12882398963
)
;

boundaryField
{
    ground
    {
        type            zeroGradient;
    }
    top
    {
        type            zeroGradient;
    }
    left
    {
        type            zeroGradient;
    }
    right
    {
        type            zeroGradient;
    }
    defaultFaces
    {
        type            empty;
    }
}


// ************************************************************************* //