/*--------------------------------*- C++ -*----------------------------------*| =========                 |                                                 |
| \      /  F ield         | OpenFOAM: The Open Source CFD Toolbox           |
|  \    /   O peration     | Version:  dev                                   |
|   \  /    A nd           | Web:      www.OpenFOAM.org                      |
|    \/     M anipulation  |                                                 |
\*---------------------------------------------------------------------------*/
FoamFile
{
    version     2.0;
    format      ascii;
    class       volScalarField;
    location    "0";
    object      sigma.buoyant;
}
// * * * * * * * * * * * * * * * * * * * * * * * * * * * * * * * * * * * * * //

dimensions      [0 0 0 0 0 0 0];

internalField   nonuniform List<scalar> 
100
(
0.498724792538
0.495736031505
0.491464381644
0.485145828489
0.476213083569
0.466076164051
0.460402237473
0.457363549631
0.45508225494
0.453102400332
0.451234180848
0.449393651534
0.447491324075
0.445527917632
0.443446874247
0.441277768375
0.438950490153
0.436479938604
0.433826585404
0.43109215996
0.428150704469
0.425091223693
0.421858921386
0.418397100533
0.414928223683
0.411096272393
0.407189237317
0.403275275817
0.398795397152
0.394599888126
0.389839060396
0.384030223456
0.382307710748
0.38168308474
0.381506601493
0.383015468761
0.390114972526
0.36673625421
0.349117774454
0.342116159781
0.337051431503
0.339208700163
0.341431100585
0.35054684753
0.36106613372
0.362422981696
0.365167259834
0.377300007191
0.395830251982
0.408864738423
0.433574300646
0.474033781312
0.508080597573
0.500761349959
0.5
0.499901735598
0.480687959793
0.480392156863
0.464593153212
0.460784313725
0.443219672222
0.440860242904
0.421600403309
0.412955319751
0.401824727306
0.388075857259
0.381037796626
0.376885540312
0.379784738781
0.385349760379
0.391261463496
0.396602033444
0.401743466359
0.406497267253
0.411011882153
0.415287509916
0.419272912252
0.423084816008
0.42661182907
0.429963404255
0.433097322968
0.436050710596
0.438806828457
0.44140086789
0.443848676373
0.446132759288
0.448270907342
0.45032842364
0.452285714626
0.45420316034
0.456157685432
0.458229729856
0.460640742638
0.463873722224
0.469780621107
0.478963052942
0.486559726382
0.492057761571
0.495942043638
0.498783925701
)
;

boundaryField
{
    ground
    {
        type            zeroGradient;
    }
    top
    {
        type            zeroGradient;
    }
    left
    {
        type            zeroGradient;
    }
    right
    {
        type            zeroGradient;
    }
    defaultFaces
    {
        type            empty;
    }
}


// ************************************************************************* //