/*--------------------------------*- C++ -*----------------------------------*| =========                 |                                                 |
| \      /  F ield         | OpenFOAM: The Open Source CFD Toolbox           |
|  \    /   O peration     | Version:  dev                                   |
|   \  /    A nd           | Web:      www.OpenFOAM.org                      |
|    \/     M anipulation  |                                                 |
\*---------------------------------------------------------------------------*/
FoamFile
{
    version     2.0;
    format      ascii;
    class       volScalarField;
    location    "0";
    object      sigma.stable;
}
// * * * * * * * * * * * * * * * * * * * * * * * * * * * * * * * * * * * * * //

dimensions      [0 0 0 0 0 0 0];

internalField   nonuniform List<scalar> 
100
(
0.9
0.885651168059
0.88777459421
0.888992299426
0.889532360084
0.889318017912
0.888705493815
0.887940004014
0.887127093054
0.886317212403
0.886465154076
0.885153626557
0.884111508904
0.883436344007
0.882830142011
0.882291227083
0.881817350941
0.881405725671
0.88105279729
0.88075454992
0.880507227978
0.880305534403
0.880141393347
0.880005597535
0.879887224028
0.879771756444
0.879640032665
0.879466465509
0.879216287319
0.87884127529
0.878272920758
0.877411085579
0.87581465314
0.871854704388
0.87007651964
0.862698183224
0.857525072623
0.849482820462
0.839960127351
0.835274846433
0.830843137599
0.821934532468
0.814866101673
0.81114632849
0.802465198282
0.796247612605
0.790023359831
0.782014222006
0.779548138821
0.772199982637
0.766530580957
0.760837678915
0.754187043945
0.749883520269
0.742581467755
0.739371284374
0.731852391217
0.729312277414
0.722057162963
0.719710081974
0.713084155692
0.7105061854
0.705090716847
0.701807118923
0.698303456103
0.6936606525
0.689771927168
0.684520435859
0.68232030819
0.679591080413
0.674390520149
0.672166393818
0.668965345507
0.664208426442
0.66309326624
0.660356450371
0.658073710453
0.655301089475
0.652915793272
0.650662510499
0.648964982811
0.645833390598
0.644518998073
0.642595312791
0.640769563935
0.639057199633
0.636730759446
0.635837904322
0.634384576688
0.633088355082
0.631917171409
0.630885764042
0.630029270748
0.629308726536
0.628679509947
0.628196836474
0.627459015126
0.627464339009
0.627365782932
0.730908774932
)
;

boundaryField
{
    ground
    {
        type            zeroGradient;
    }
    top
    {
        type            zeroGradient;
    }
    left
    {
        type            zeroGradient;
    }
    right
    {
        type            zeroGradient;
    }
    defaultFaces
    {
        type            empty;
    }
}


// ************************************************************************* //