/*--------------------------------*- C++ -*----------------------------------*| =========                 |                                                 |
| \      /  F ield         | OpenFOAM: The Open Source CFD Toolbox           |
|  \    /   O peration     | Version:  dev                                   |
|   \  /    A nd           | Web:      www.OpenFOAM.org                      |
|    \/     M anipulation  |                                                 |
\*---------------------------------------------------------------------------*/
FoamFile
{
    version     2.0;
    format      ascii;
    class       volScalarField;
    location    "0";
    object      sigmaRhoExpected.buoyant;
}
// * * * * * * * * * * * * * * * * * * * * * * * * * * * * * * * * * * * * * //

dimensions      [1 -3 0 0 0 0 0];

internalField   nonuniform List<scalar> 
100
(
0.576717863746
0.570801034364
0.562668333918
0.550926230064
0.534367921293
0.512349186248
0.487042414213
0.461078824801
0.435585557318
0.411256964793
0.388617374138
0.368100821478
0.35009993705
0.334988105533
0.322756430842
0.312448156934
0.303516225913
0.295652128954
0.288605933859
0.282177513646
0.276188960704
0.270465360272
0.264811608278
0.259147135148
0.253471466014
0.247794648978
0.242120804389
0.236444132191
0.230744751285
0.225078166362
0.219479119633
0.213929142761
0.208429409724
0.202965360434
0.197470090538
0.192377299087
0.186532551439
0.180722795825
0.176967531531
0.175641354947
0.181130068619
0.187413659525
0.195253464813
0.194095423829
0.177896601293
0.170815864825
0.167933096883
0.161346459849
0.162821564223
0.156109224716
0.151980065109
0.150184408304
0.152254607868
0.157043829351
0.160920011895
0.160932880219
0.163416916104
0.173228870847
0.187669135166
0.196113109943
0.192425652529
0.187144147512
0.185238410654
0.177499662447
0.175098662121
0.168746997987
0.165254303225
0.158111790692
0.155553945643
0.148170997057
0.144352090034
0.139638012533
0.136236494736
0.134854819421
0.135228683094
0.136179252982
0.137148612219
0.137961271571
0.138663568726
0.139252503875
0.139698221238
0.140013549389
0.140210750796
0.140300112793
0.140294280534
0.14020627044
0.140156805639
0.140355598102
0.140979808487
0.142234420945
0.144386205279
0.14779959922
0.153267587984
0.161548191933
0.17229138656
0.184916788295
0.198547891
0.211350328852
0.218043793582
0.218280330353
)
;

boundaryField
{
    ground
    {
        type            zeroGradient;
    }
    top
    {
        type            zeroGradient;
    }
    left
    {
        type            zeroGradient;
    }
    right
    {
        type            zeroGradient;
    }
    defaultFaces
    {
        type            empty;
    }
}


// ************************************************************************* //