/*--------------------------------*- C++ -*----------------------------------*| =========                 |                                                 |
| \      /  F ield         | OpenFOAM: The Open Source CFD Toolbox           |
|  \    /   O peration     | Version:  dev                                   |
|   \  /    A nd           | Web:      www.OpenFOAM.org                      |
|    \/     M anipulation  |                                                 |
\*---------------------------------------------------------------------------*/
FoamFile
{
    version     2.0;
    format      ascii;
    class       volScalarField;
    location    "0";
    object      sigma.stable;
}
// * * * * * * * * * * * * * * * * * * * * * * * * * * * * * * * * * * * * * //

dimensions      [0 0 0 0 0 0 0];

internalField   nonuniform List<scalar> 
100
(
0.500208290489
0.501291284098
0.504369737832
0.510731904232
0.521541253503
0.537485444285
0.556696378356
0.576844757908
0.596910451923
0.616241677912
0.634324748338
0.650713303122
0.664985627657
0.676725053248
0.685880373496
0.69332331096
0.699548061513
0.704828707311
0.709389203373
0.713413160853
0.717066984757
0.720518458973
0.723965376119
0.727495227905
0.73111299387
0.734810738094
0.738583399794
0.742436966567
0.746396751033
0.750407160565
0.754415495716
0.758451508089
0.762544984667
0.766657495521
0.770886683292
0.774745266981
0.779574669895
0.784508080556
0.786807671172
0.786337122004
0.777321929598
0.767326111553
0.755346624476
0.755112476535
0.773236863923
0.780042515225
0.781377586395
0.788180743761
0.784540007239
0.790553924162
0.794052079255
0.794476210795
0.790841432307
0.782272569156
0.774931973523
0.772683717146
0.764594219595
0.747509392456
0.723592262759
0.709641279887
0.714757794193
0.717821782178
0.717821782178
0.72757139363
0.727722772277
0.736157331049
0.737623762376
0.747003608421
0.748299072169
0.75735287306
0.761597398369
0.766419079463
0.769680841261
0.769307947341
0.766085944344
0.761952979573
0.757788074119
0.753850865446
0.750062059513
0.746405939285
0.742904548465
0.739514557842
0.7362483795
0.733127064611
0.730138246831
0.727260463501
0.724251603949
0.720693070149
0.716212026296
0.710360956826
0.702545696598
0.691938775053
0.676756468852
0.655276406066
0.62804954727
0.596141414906
0.561325715314
0.52761925195
0.506967784329
0.500524106089
)
;

boundaryField
{
    ground
    {
        type            zeroGradient;
    }
    top
    {
        type            zeroGradient;
    }
    left
    {
        type            zeroGradient;
    }
    right
    {
        type            zeroGradient;
    }
    defaultFaces
    {
        type            empty;
    }
}


// ************************************************************************* //