/*--------------------------------*- C++ -*----------------------------------*| =========                 |                                                 |
| \      /  F ield         | OpenFOAM: The Open Source CFD Toolbox           |
|  \    /   O peration     | Version:  dev                                   |
|   \  /    A nd           | Web:      www.OpenFOAM.org                      |
|    \/     M anipulation  |                                                 |
\*---------------------------------------------------------------------------*/
FoamFile
{
    version     2.0;
    format      ascii;
    class       volScalarField;
    location    "0";
    object      sigmaRhoExpected.buoyant;
}
// * * * * * * * * * * * * * * * * * * * * * * * * * * * * * * * * * * * * * //

dimensions      [1 -3 0 0 0 0 0];

internalField   nonuniform List<scalar> 
100
(
0.575483520386
0.567367721962
0.557909694403
0.54628932669
0.531926505944
0.516395047994
0.505930812632
0.498440651371
0.491851152844
0.485652201058
0.479614774549
0.47365322561
0.467694851314
0.461717809395
0.45566574288
0.449593319134
0.443422371311
0.437169119504
0.430798844654
0.424398488211
0.417867748374
0.411292734388
0.404630780336
0.397811080884
0.391065214693
0.384065992125
0.377053019934
0.370155817266
0.362811122288
0.355750502761
0.348377939534
0.340008543723
0.33516499177
0.331716115218
0.328441521765
0.326458075429
0.329512238034
0.307202345584
0.289611936432
0.281288817019
0.274320391648
0.273323597768
0.272356658029
0.278011253518
0.282841916609
0.281173370199
0.280146736183
0.285922531018
0.297324941254
0.304541976459
0.31866581561
0.344884616545
0.368049981914
0.360463250479
0.355622813725
0.352097519608
0.335694777855
0.331587745098
0.318921632173
0.311672294118
0.297704759568
0.292325534542
0.276619799181
0.269103336092
0.258121622657
0.247093693077
0.239915280031
0.234597850121
0.233861133219
0.234915663081
0.236202430933
0.237112692797
0.237852200849
0.238268084271
0.238414474118
0.238339526689
0.238046757446
0.237625388489
0.23702102078
0.236294440544
0.235418580004
0.23441923954
0.233315694874
0.232112395664
0.230803341412
0.229403928578
0.227931821905
0.226401062156
0.224817857879
0.223215718002
0.221613175464
0.220065278645
0.218668154887
0.217636616841
0.217832242038
0.219514849619
0.220385145989
0.220286325041
0.219408310141
0.218031584792
)
;

boundaryField
{
    ground
    {
        type            zeroGradient;
    }
    top
    {
        type            zeroGradient;
    }
    left
    {
        type            zeroGradient;
    }
    right
    {
        type            zeroGradient;
    }
    defaultFaces
    {
        type            empty;
    }
}


// ************************************************************************* //