/*--------------------------------*- C++ -*----------------------------------*| =========                 |                                                 |
| \      /  F ield         | OpenFOAM: The Open Source CFD Toolbox           |
|  \    /   O peration     | Version:  dev                                   |
|   \  /    A nd           | Web:      www.OpenFOAM.org                      |
|    \/     M anipulation  |                                                 |
\*---------------------------------------------------------------------------*/
FoamFile
{
    version     2.0;
    format      ascii;
    class       volScalarField;
    location    "0";
    object      sigmaRhoInitial.stable;
}
// * * * * * * * * * * * * * * * * * * * * * * * * * * * * * * * * * * * * * //

dimensions      [1 -3 0 0 0 0 0];

internalField   nonuniform List<scalar> 
100
(
0.57720099533
0.573761662172
0.572590333927
0.575082260337
0.582446379139
0.595322814224
0.61152030363
0.628414401098
0.644880131173
0.660224098875
0.673922923471
0.685542242816
0.694688913099
0.700989421535
0.704459655192
0.706056480495
0.70632462796
0.70557095753
0.704042836224
0.701940028101
0.69943907765
0.696712089211
0.693954187052
0.691249011757
0.688599570439
0.685996667659
0.68343404645
0.680915763879
0.678463262271
0.676024299352
0.673551031511
0.671070256306
0.668607835938
0.666129413028
0.663718974223
0.660958518541
0.658990647862
0.657066696285
0.652910616628
0.646462755395
0.633098311773
0.619119752257
0.603755850783
0.597886887913
0.606424453784
0.605966834615
0.601245815564
0.600686720693
0.59220809804
0.591008419818
0.587896449051
0.582519715901
0.574231221017
0.562487671087
0.551766199705
0.544758728355
0.533744879824
0.516669129321
0.495190756091
0.48081480821
0.479419476901
0.476631368046
0.471824486287
0.473369604505
0.468656387623
0.469233316884
0.465349423083
0.466403131909
0.462382973743
0.46311133012
0.460846994774
0.458904220194
0.456004728071
0.450963552884
0.444304697876
0.437193320885
0.430144838457
0.423305123817
0.416625446976
0.410093978717
0.403719819298
0.397476429297
0.391367968736
0.385402875105
0.379571747622
0.373860828454
0.368144734083
0.362214949338
0.355895178413
0.348980720201
0.341205464301
0.332204203667
0.321175746942
0.307386204844
0.291192229499
0.273172942289
0.254204068247
0.23612668546
0.224204231471
0.218730577728
)
;

boundaryField
{
    ground
    {
        type            zeroGradient;
    }
    top
    {
        type            zeroGradient;
    }
    left
    {
        type            zeroGradient;
    }
    right
    {
        type            zeroGradient;
    }
    defaultFaces
    {
        type            empty;
    }
}


// ************************************************************************* //