/*--------------------------------*- C++ -*----------------------------------*| =========                 |                                                 |
| \      /  F ield         | OpenFOAM: The Open Source CFD Toolbox           |
|  \    /   O peration     | Version:  dev                                   |
|   \  /    A nd           | Web:      www.OpenFOAM.org                      |
|    \/     M anipulation  |                                                 |
\*---------------------------------------------------------------------------*/
FoamFile
{
    version     2.0;
    format      ascii;
    class       volScalarField;
    location    "0";
    object      thetaVar.stable;
}
// * * * * * * * * * * * * * * * * * * * * * * * * * * * * * * * * * * * * * //

dimensions      [0 0 0 2 0 0 0];

internalField   nonuniform List<scalar> 
100
(
8.47789599967e-08
1.39761322581e-09
2.90805684101e-26
8.07793566946e-26
3.23117426779e-27
0.0
1.29246970711e-26
3.23117426779e-27
3.88862147905e-10
6.70775109537e-09
8.55872972955e-08
5.04537491468e-07
2.88073730253e-06
1.08789093911e-05
3.42688393049e-05
8.99745807661e-05
0.000200412335044
0.000404098963967
0.000782691673232
0.00150159170554
0.00263127206506
0.00415121551594
0.00597394979674
0.00797975307119
0.0102695391829
0.0132026834436
0.0172778133076
0.0220376708662
0.0267821195993
0.0310071794223
0.0341688204437
0.035773426246
0.0351841654492
0.0322111388812
0.027386233611
0.0245278155215
0.0232020219097
0.0188191034824
0.0109344385281
0.00420878227864
0.00111170498756
0.000164729774413
3.79801027927e-06
4.42044685327e-11
3.23117426779e-27
0.0
0.0
3.23117426779e-27
3.23117426779e-27
3.23117426779e-27
3.23117426779e-27
2.90805684101e-26
1.29246970711e-26
1.29246970711e-26
0.0
0.0
3.23117426779e-27
0.0
2.90805684101e-26
0.0
2.90805684101e-26
2.90805684101e-26
2.90805684101e-26
3.23117426779e-27
0.0
1.29246970711e-26
0.0
1.29246970711e-26
2.90805684101e-26
3.23117426779e-27
5.16987882846e-26
3.23117426779e-27
1.29246970711e-26
3.23117426779e-27
1.29246970711e-26
1.29246970711e-26
3.23117426779e-27
3.23117426779e-27
3.23117426779e-27
1.29246970711e-26
0.0
0.0
3.23117426779e-27
2.90805684101e-26
3.23117426779e-27
0.0
5.16987882846e-26
1.29246970711e-26
3.23117426779e-27
2.90805684101e-26
0.0
1.29246970711e-26
0.0
3.23117426779e-27
2.90805684101e-26
3.23117426779e-27
0.0
3.23117426779e-27
2.90805684101e-26
0.0
)
;

boundaryField
{
    ground
    {
        type            zeroGradient;
    }
    top
    {
        type            zeroGradient;
    }
    left
    {
        type            zeroGradient;
    }
    right
    {
        type            zeroGradient;
    }
    defaultFaces
    {
        type            empty;
    }
}


// ************************************************************************* //