/*--------------------------------*- C++ -*----------------------------------*| =========                 |                                                 |
| \      /  F ield         | OpenFOAM: The Open Source CFD Toolbox           |
|  \    /   O peration     | Version:  dev                                   |
|   \  /    A nd           | Web:      www.OpenFOAM.org                      |
|    \/     M anipulation  |                                                 |
\*---------------------------------------------------------------------------*/
FoamFile
{
    version     2.0;
    format      ascii;
    class       volScalarField;
    location    "0";
    object      thetaVar.stable;
}
// * * * * * * * * * * * * * * * * * * * * * * * * * * * * * * * * * * * * * //

dimensions      [0 0 0 2 0 0 0];

internalField   nonuniform List<scalar> 
100
(
1.61911592552e-08
9.87241022751e-09
7.91665860114e-09
4.27109717473e-09
1.70321461551e-10
3.23117426779e-27
3.23117426779e-27
2.90805684101e-26
5.16987882846e-26
1.29246970711e-26
3.23117426779e-27
8.07793566946e-26
8.07793566946e-26
2.90805684101e-26
3.23117426779e-27
1.29246970711e-26
8.07793566946e-26
1.29246970711e-26
0.0
3.23117426779e-27
3.23117426779e-27
2.90805684101e-26
1.29246970711e-26
2.90805684101e-26
3.23117426779e-27
3.23117426779e-27
1.29246970711e-26
2.90805684101e-26
2.90805684101e-26
5.16987882846e-26
3.23117426779e-27
1.29246970711e-26
0.0
5.16987882846e-26
3.23117426779e-27
3.23117426779e-27
1.29246970711e-26
7.21186917019e-07
9.50199826494e-05
0.00230020441022
0.00887166876496
0.0176189603349
0.0205548846347
0.0250576018904
0.0335842823826
0.0308027243495
0.0251990429577
0.0293536212078
0.0215891474866
0.0235008064991
0.0255002367171
0.0264118832935
0.0249780681696
0.0209460935604
0.0193723735258
0.0218221720747
0.0217155575637
0.0179068412055
0.0126538171377
0.00711821439715
0.0127085557141
0.0107698090705
0.00551568185232
0.0121139289036
0.00532782077586
0.00887880233857
0.00311692666206
0.00500754866046
0.00128182756612
0.00104757490843
0.00049605188927
2.3226474519e-05
3.23989984841e-06
1.58327539121e-25
2.06795153138e-25
5.16987882846e-26
1.29246970711e-26
1.29246970711e-26
2.90805684101e-26
0.0
1.29246970711e-26
3.23117426779e-27
0.0
1.29246970711e-26
1.29246970711e-26
1.1632227364e-25
3.23117426779e-27
5.16987882846e-26
3.23117426779e-27
0.0
3.23117426779e-27
2.06795153138e-25
3.23117426779e-27
1.29246970711e-26
2.90805684101e-26
0.0
3.23117426779e-27
5.16987882846e-26
1.29246970711e-26
1.29246970711e-26
)
;

boundaryField
{
    ground
    {
        type            zeroGradient;
    }
    top
    {
        type            zeroGradient;
    }
    left
    {
        type            zeroGradient;
    }
    right
    {
        type            zeroGradient;
    }
    defaultFaces
    {
        type            empty;
    }
}


// ************************************************************************* //