/*--------------------------------*- C++ -*----------------------------------*| =========                 |                                                 |
| \      /  F ield         | OpenFOAM: The Open Source CFD Toolbox           |
|  \    /   O peration     | Version:  dev                                   |
|   \  /    A nd           | Web:      www.OpenFOAM.org                      |
|    \/     M anipulation  |                                                 |
\*---------------------------------------------------------------------------*/
FoamFile
{
    version     2.0;
    format      ascii;
    class       volScalarField;
    location    "0";
    object      thetaVar.buoyant;
}
// * * * * * * * * * * * * * * * * * * * * * * * * * * * * * * * * * * * * * //

dimensions      [0 0 0 2 0 0 0];

internalField   nonuniform List<scalar> 
100
(
2.34935815317e-08
3.53454096792e-08
5.80435797361e-08
1.02256221838e-07
1.80938031298e-07
3.11943831483e-07
5.25486558776e-07
8.52946556608e-07
1.32921214217e-06
1.99041854596e-06
2.87044691334e-06
3.99623039091e-06
5.38173245274e-06
7.02107139327e-06
8.89185485103e-06
1.09823663104e-05
1.32737629456e-05
1.57399294025e-05
1.83524870447e-05
2.10822656806e-05
2.39016586447e-05
2.67872942577e-05
2.97244578428e-05
3.26943774277e-05
3.56724465096e-05
3.86341942656e-05
4.15566942378e-05
4.44221850683e-05
4.72204523936e-05
4.9932767758e-05
5.25442709385e-05
5.50611442386e-05
5.7498344085e-05
5.98631380502e-05
6.22014425928e-05
6.43714253832e-05
6.56802420221e-05
8.45624353396e-05
0.00190415268158
0.0321306224408
0.16630815828
0.219779580829
0.190816730305
0.162515571379
0.153933550303
0.156958140257
0.162221014632
0.160371952084
0.168294015865
0.171425688436
0.170149885466
0.163854406298
0.153970248533
0.143896555794
0.135695555449
0.131676868641
0.134771226372
0.142053117236
0.145471560008
0.15172343323
0.154332967213
0.167171580855
0.180399870356
0.186838508859
0.20030555596
0.208777589132
0.217214411382
0.225004079326
0.221932785989
0.218741043488
0.205026808464
0.183492676604
0.16931016659
0.187260528484
0.258900331058
0.34212566148
0.365375220413
0.324413658895
0.218139704327
0.0864299023334
0.0117857716537
0.000222374412687
1.8573770298e-07
2.19808286602e-12
1.33873551142e-19
3.23117426779e-27
2.90805684101e-26
3.23117426779e-27
2.90805684101e-26
0.0
2.90805684101e-26
8.07793566946e-26
0.0
1.1632227364e-25
0.0
2.90805684101e-26
5.16987882846e-26
0.0
1.1632227364e-25
1.29246970711e-26
)
;

boundaryField
{
    ground
    {
        type            zeroGradient;
    }
    top
    {
        type            zeroGradient;
    }
    left
    {
        type            zeroGradient;
    }
    right
    {
        type            zeroGradient;
    }
    defaultFaces
    {
        type            empty;
    }
}


// ************************************************************************* //