/*--------------------------------*- C++ -*----------------------------------*| =========                 |                                                 |
| \      /  F ield         | OpenFOAM: The Open Source CFD Toolbox           |
|  \    /   O peration     | Version:  dev                                   |
|   \  /    A nd           | Web:      www.OpenFOAM.org                      |
|    \/     M anipulation  |                                                 |
\*---------------------------------------------------------------------------*/
FoamFile
{
    version     2.0;
    format      ascii;
    class       volScalarField;
    location    "0";
    object      theta;
}
// * * * * * * * * * * * * * * * * * * * * * * * * * * * * * * * * * * * * * //

dimensions      [0 0 0 1 0 0 0];

internalField   nonuniform List<scalar> 
100
(
300.000019608
300.000029412
300.00004902
300.00004902
300.000078431
300.000098039
300.00012745
300.000176469
300.000215684
300.000254897
300.00029411
300.000362735
300.000411752
300.000480377
300.000549
300.00058821
300.000637228
300.000705849
300.000774474
300.000813685
300.0008627
300.000921519
300.000950928
300.00099014
300.001019549
300.001048959
300.001078369
300.001117583
300.001127388
300.001166606
300.001176415
300.001284251
300.0031563
300.018009453
300.070742471
300.165300073
300.234623493
300.259095804
300.265021715
300.266244551
300.265929365
300.263789284
300.258653032
300.250187995
300.238343812
300.223918002
300.209157916
300.196980931
300.188489077
300.185235466
300.186665625
300.190358683
300.195314237
300.20170841
300.209648977
300.219047928
300.229953543
300.242346278
300.256195964
300.271609721
300.288714137
300.30778255
300.329352064
300.35348809
300.379724685
300.406437091
300.429318
300.436878318
300.411656626
300.354536809
300.27992179
300.18975338
300.096273911
300.02801092
300.003009983
300.000058834
300.0
300.0
300.0
300.0
300.0
300.0
300.0
300.0
300.0
300.0
300.0
300.0
300.0
300.0
300.0
300.0
300.0
300.0
300.0
300.0
300.0
300.0
300.0
300.0
)
;

boundaryField
{
    ground
    {
        type            zeroGradient;
    }
    top
    {
        type            zeroGradient;
    }
    left
    {
        type            zeroGradient;
    }
    right
    {
        type            zeroGradient;
    }
    defaultFaces
    {
        type            empty;
    }
}


// ************************************************************************* //