/*--------------------------------*- C++ -*----------------------------------*| =========                 |                                                 |
| \      /  F ield         | OpenFOAM: The Open Source CFD Toolbox           |
|  \    /   O peration     | Version:  dev                                   |
|   \  /    A nd           | Web:      www.OpenFOAM.org                      |
|    \/     M anipulation  |                                                 |
\*---------------------------------------------------------------------------*/
FoamFile
{
    version     2.0;
    format      ascii;
    class       volScalarField;
    location    "0";
    object      theta;
}
// * * * * * * * * * * * * * * * * * * * * * * * * * * * * * * * * * * * * * //

dimensions      [0 0 0 1 0 0 0];

internalField   nonuniform List<scalar> 
100
(
300.00001305
300.000014436
300.000017585
300.000022856
300.000030389
300.000040168
300.000052077
300.000065948
300.00008158
300.000098757
300.000117254
300.000136844
300.000157306
300.000178428
300.000200009
300.000221858
300.000243789
300.00026562
300.000287166
300.000308232
300.000328618
300.000348121
300.000366541
300.000383698
300.000399453
300.000413675
300.000426305
300.000437335
300.000446841
300.000454749
300.000461304
300.000466624
300.000470866
300.000474169
300.000476828
300.000479679
300.000502096
300.000875832
300.004357146
300.020887549
300.065117599
300.107636226
300.12570894
300.127850217
300.127098102
300.125888219
300.124850878
300.12526933
300.127136043
300.129679088
300.13216444
300.133113851
300.131557373
300.127512779
300.120772693
300.112367626
300.10422625
300.097867676
300.094099893
300.09304432
300.094508279
300.097727787
300.10190061
300.106967395
300.112942216
300.119630017
300.127012962
300.135155248
300.144168443
300.154188939
300.16538162
300.177999103
300.192167161
300.207357965
300.220843265
300.225282137
300.210881607
300.179077968
300.138502055
300.091922305
300.046228845
300.013721001
300.001558774
300.00003855
300.000000116
300.0
300.0
300.0
300.0
300.0
300.0
300.0
300.0
300.0
300.0
300.0
300.0
300.0
300.0
300.0
)
;

boundaryField
{
    ground
    {
        type            zeroGradient;
    }
    top
    {
        type            zeroGradient;
    }
    left
    {
        type            zeroGradient;
    }
    right
    {
        type            zeroGradient;
    }
    defaultFaces
    {
        type            empty;
    }
}


// ************************************************************************* //