/*--------------------------------*- C++ -*----------------------------------*| =========                 |                                                 |
| \      /  F ield         | OpenFOAM: The Open Source CFD Toolbox           |
|  \    /   O peration     | Version:  dev                                   |
|   \  /    A nd           | Web:      www.OpenFOAM.org                      |
|    \/     M anipulation  |                                                 |
\*---------------------------------------------------------------------------*/
FoamFile
{
    version     2.0;
    format      ascii;
    class       volScalarField;
    location    "0";
    object      theta.buoyant;
}
// * * * * * * * * * * * * * * * * * * * * * * * * * * * * * * * * * * * * * //

dimensions      [0 0 0 1 0 0 0];

internalField   nonuniform List<scalar> 
100
(
300.000101924
300.000306515
300.000818347
300.002013185
300.004273756
300.007894581
300.013088553
300.020242269
300.029740801
300.042302442
300.05874759
300.07889698
300.102954528
300.130709558
300.161952082
300.196387928
300.234626886
300.27684259
300.323750137
300.375261909
300.430291797
300.488380045
300.549729372
300.614950282
300.684283362
300.757725612
300.834881675
300.914694712
300.996692659
301.080320335
301.165170363
301.250353288
301.334274943
301.415080035
301.489892368
301.560160417
301.626443066
301.677010198
301.679399878
301.61806096
301.508092823
301.334111381
301.066990277
300.739756762
300.417423063
300.168744574
300.038076667
300.003180212
300.0
300.0
300.0
300.0
300.0
300.0
300.0
300.0
300.0
300.0
300.0
300.0
300.0
300.0
300.0
300.0
300.0
300.0
300.0
300.0
300.0
300.0
300.0
300.0
300.0
300.0
300.0
300.0
300.0
300.0
300.0
300.0
300.0
300.0
300.0
300.0
300.0
300.0
300.0
300.0
300.0
300.0
300.0
300.0
300.0
300.0
300.0
300.0
300.0
300.0
300.0
300.0
)
;

boundaryField
{
    ground
    {
        type            zeroGradient;
    }
    top
    {
        type            zeroGradient;
    }
    left
    {
        type            zeroGradient;
    }
    right
    {
        type            zeroGradient;
    }
    defaultFaces
    {
        type            empty;
    }
}


// ************************************************************************* //