/*--------------------------------*- C++ -*----------------------------------*| =========                 |                                                 |
| \      /  F ield         | OpenFOAM: The Open Source CFD Toolbox           |
|  \    /   O peration     | Version:  dev                                   |
|   \  /    A nd           | Web:      www.OpenFOAM.org                      |
|    \/     M anipulation  |                                                 |
\*---------------------------------------------------------------------------*/
FoamFile
{
    version     2.0;
    format      ascii;
    class       volScalarField;
    location    "0";
    object      thetaVar.buoyant;
}
// * * * * * * * * * * * * * * * * * * * * * * * * * * * * * * * * * * * * * //

dimensions      [0 0 0 2 0 0 0];

internalField   nonuniform List<scalar> 
100
(
4.62143268064e-08
7.29765900978e-08
1.87657387567e-07
2.07350047684e-07
5.90439054857e-07
8.81286701704e-07
1.35006979227e-06
2.16615260111e-06
3.30839878369e-06
4.70326550686e-06
6.35373772601e-06
9.05619076979e-06
1.16845884629e-05
1.45704612755e-05
1.85849465856e-05
2.18164390938e-05
2.54299524577e-05
2.92329727217e-05
3.34431162309e-05
3.73474819531e-05
4.21912390724e-05
4.7373232569e-05
5.0155770373e-05
5.5154432023e-05
5.84145956436e-05
6.19525099974e-05
6.53568701819e-05
7.12760183465e-05
7.41868130969e-05
7.70456184605e-05
8.01675747385e-05
8.27690503586e-05
0.000101547960145
0.00240717441868
0.0354647459985
0.159820802565
0.218715115148
0.174267712543
0.150327049833
0.140532999471
0.143169963012
0.14534321774
0.138396176517
0.139080550087
0.137673013175
0.123513177576
0.115531224271
0.11753150921
0.129275756624
0.137691499763
0.14669803562
0.150702285503
0.152889509511
0.146579015144
0.162689398975
0.176830402703
0.176724010621
0.192625734265
0.196191831838
0.2067504844
0.210066797885
0.207296554174
0.201627618962
0.181171172322
0.150850326001
0.122948053409
0.126645803038
0.197200154461
0.31699045329
0.38662303896
0.377000838786
0.270730819509
0.110471472605
0.0147031066254
0.000255425078763
1.68807991811e-07
1.29246970711e-26
1.29246970711e-26
2.90805684101e-26
3.23117426779e-27
1.29246970711e-26
1.29246970711e-26
2.90805684101e-26
3.23117426779e-27
1.29246970711e-26
1.29246970711e-26
0.0
1.29246970711e-26
2.90805684101e-26
1.29246970711e-26
0.0
3.23117426779e-27
0.0
2.90805684101e-26
3.23117426779e-27
0.0
8.07793566946e-26
3.23117426779e-27
1.29246970711e-26
2.90805684101e-26
)
;

boundaryField
{
    ground
    {
        type            zeroGradient;
    }
    top
    {
        type            zeroGradient;
    }
    left
    {
        type            zeroGradient;
    }
    right
    {
        type            zeroGradient;
    }
    defaultFaces
    {
        type            empty;
    }
}


// ************************************************************************* //