/*--------------------------------*- C++ -*----------------------------------*| =========                 |                                                 |
| \      /  F ield         | OpenFOAM: The Open Source CFD Toolbox           |
|  \    /   O peration     | Version:  dev                                   |
|   \  /    A nd           | Web:      www.OpenFOAM.org                      |
|    \/     M anipulation  |                                                 |
\*---------------------------------------------------------------------------*/
FoamFile
{
    version     2.0;
    format      ascii;
    class       volScalarField;
    location    "0";
    object      thetaVar.buoyant;
}
// * * * * * * * * * * * * * * * * * * * * * * * * * * * * * * * * * * * * * //

dimensions      [0 0 0 2 0 0 0];

internalField   nonuniform List<scalar> 
100
(
2.37456695452e-07
1.11293525389e-06
5.2860440662e-06
2.27377677251e-05
7.04291736128e-05
0.000172917391403
0.000366970936613
0.000668586762392
0.00109505348099
0.00166114509076
0.0023055539593
0.0029734416478
0.00357614646254
0.00403973320947
0.00434684155626
0.00451190256868
0.00446315976301
0.00421252077428
0.00371105142805
0.00305903094951
0.00243617227214
0.00200598920991
0.00174604678346
0.00161808133668
0.00159810024679
0.00168368150122
0.00195025856152
0.00237630165367
0.00292042205204
0.0034796282864
0.00406156798627
0.00484440585369
0.0063174029876
0.00951657065734
0.0161972223335
0.0273698698581
0.0423378503585
0.0619387391714
0.0955037076989
0.15441601695
0.237163165023
0.323352273024
0.37091184464
0.303547386479
0.15402717682
0.0383372312003
0.00286811962688
2.82735958951e-05
0.0
0.0
0.0
3.23117426779e-27
1.29246970711e-26
2.90805684101e-26
1.29246970711e-26
1.29246970711e-26
1.29246970711e-26
3.23117426779e-27
3.23117426779e-27
3.23117426779e-27
3.23117426779e-27
3.23117426779e-27
3.23117426779e-27
1.29246970711e-26
0.0
1.29246970711e-26
0.0
1.29246970711e-26
2.90805684101e-26
0.0
3.23117426779e-27
0.0
3.23117426779e-27
1.29246970711e-26
0.0
2.90805684101e-26
3.23117426779e-27
2.90805684101e-26
3.23117426779e-27
5.16987882846e-26
3.23117426779e-27
1.29246970711e-26
2.90805684101e-26
0.0
5.16987882846e-26
5.16987882846e-26
1.29246970711e-26
1.29246970711e-26
3.23117426779e-27
1.29246970711e-26
1.29246970711e-26
0.0
1.29246970711e-26
2.90805684101e-26
2.90805684101e-26
0.0
0.0
1.29246970711e-26
3.23117426779e-27
2.90805684101e-26
)
;

boundaryField
{
    ground
    {
        type            zeroGradient;
    }
    top
    {
        type            zeroGradient;
    }
    left
    {
        type            zeroGradient;
    }
    right
    {
        type            zeroGradient;
    }
    defaultFaces
    {
        type            empty;
    }
}


// ************************************************************************* //