/*--------------------------------*- C++ -*----------------------------------*| =========                 |                                                 |
| \      /  F ield         | OpenFOAM: The Open Source CFD Toolbox           |
|  \    /   O peration     | Version:  dev                                   |
|   \  /    A nd           | Web:      www.OpenFOAM.org                      |
|    \/     M anipulation  |                                                 |
\*---------------------------------------------------------------------------*/
FoamFile
{
    version     2.0;
    format      ascii;
    class       volScalarField;
    location    "0";
    object      thetaVar.buoyant;
}
// * * * * * * * * * * * * * * * * * * * * * * * * * * * * * * * * * * * * * //

dimensions      [0 0 0 2 0 0 0];

internalField   nonuniform List<scalar> 
100
(
5.99711542927e-08
7.07369676694e-08
9.92608797801e-08
1.54732470161e-07
2.54704262148e-07
4.1998943845e-07
6.73908278188e-07
1.04024141626e-06
1.54120878771e-06
2.19574430803e-06
3.01814472844e-06
4.07880965062e-06
5.35735193583e-06
6.75398490935e-06
8.3231757814e-06
1.00507111436e-05
1.22992626796e-05
1.43477476596e-05
1.649303269e-05
1.87087316561e-05
2.16575199142e-05
2.40070997115e-05
2.63460344776e-05
2.96199081741e-05
3.19350866705e-05
3.4162349851e-05
3.75535592347e-05
3.96148573241e-05
4.15311285402e-05
4.48685774819e-05
4.65326496279e-05
4.98513876652e-05
5.12549573449e-05
5.25139081238e-05
5.5761815765e-05
5.68329160237e-05
5.98471067657e-05
5.92704136183e-05
0.000489163428283
0.0114759135294
0.108099951807
0.207878375276
0.195840332578
0.166912837577
0.160603252155
0.148761732757
0.149737877791
0.159215847524
0.15900338937
0.157762565485
0.166493996544
0.174932910391
0.164287027194
0.157974517712
0.148396793142
0.140750916668
0.138133095472
0.141652014122
0.151207395903
0.145138141171
0.1439123341
0.158057179326
0.170128659867
0.177374619944
0.190600959587
0.199586210429
0.210208052083
0.220689333991
0.222601470135
0.227711908159
0.225874469851
0.207841022986
0.182442879022
0.169468947546
0.183077351326
0.241979118164
0.337152360162
0.353687859537
0.314210786695
0.211185311444
0.0849675734107
0.011551265907
0.000223416382152
1.90138029097e-07
2.18490611618e-12
1.30802177277e-19
3.23117426779e-27
0.0
1.29246970711e-26
1.29246970711e-26
3.23117426779e-27
3.23117426779e-27
3.23117426779e-27
0.0
3.23117426779e-27
3.23117426779e-27
3.23117426779e-27
1.29246970711e-26
2.90805684101e-26
1.29246970711e-26
)
;

boundaryField
{
    ground
    {
        type            zeroGradient;
    }
    top
    {
        type            zeroGradient;
    }
    left
    {
        type            zeroGradient;
    }
    right
    {
        type            zeroGradient;
    }
    defaultFaces
    {
        type            empty;
    }
}


// ************************************************************************* //