/*--------------------------------*- C++ -*----------------------------------*| =========                 |                                                 |
| \      /  F ield         | OpenFOAM: The Open Source CFD Toolbox           |
|  \    /   O peration     | Version:  dev                                   |
|   \  /    A nd           | Web:      www.OpenFOAM.org                      |
|    \/     M anipulation  |                                                 |
\*---------------------------------------------------------------------------*/
FoamFile
{
    version     2.0;
    format      ascii;
    class       volScalarField;
    location    "0";
    object      thetaVar.buoyant;
}
// * * * * * * * * * * * * * * * * * * * * * * * * * * * * * * * * * * * * * //

dimensions      [0 0 0 2 0 0 0];

internalField   nonuniform List<scalar> 
100
(
1.99868677815e-08
7.38886510428e-08
1.03244240182e-07
1.63201765107e-07
2.72897259904e-07
4.56406821226e-07
7.39649247453e-07
1.15089876729e-06
1.71713816118e-06
2.46221873977e-06
3.40554279131e-06
4.54987041056e-06
5.93670465152e-06
7.53117385654e-06
9.34333995218e-06
1.13633336156e-05
1.35435988974e-05
1.59629915855e-05
1.85030313747e-05
2.1177297994e-05
2.40304666744e-05
2.68177200746e-05
2.97392537819e-05
3.27641138928e-05
3.56488042251e-05
3.8595888356e-05
4.17309775442e-05
4.4342454144e-05
4.69265418476e-05
4.98042011467e-05
5.24026075201e-05
5.51477126405e-05
5.73266842477e-05
5.94556174285e-05
6.19329218433e-05
6.35598721004e-05
6.53920799553e-05
8.41714543934e-05
0.0018998351217
0.0321671367343
0.162521266191
0.218120729289
0.19414240706
0.166999093309
0.158373315263
0.157439283793
0.152357844211
0.163661550074
0.165510215936
0.168233785768
0.168941163903
0.164109969146
0.155282401291
0.144281466509
0.136506313896
0.133300679617
0.138891760181
0.142920098868
0.143728635122
0.147160038474
0.155718547373
0.167856787468
0.177469549765
0.187482778851
0.19683250234
0.208145194041
0.216992290749
0.222180141488
0.226527385113
0.220635978359
0.206479288522
0.186245362247
0.171176187048
0.188643067023
0.264755294977
0.343568323872
0.365362817601
0.324416503431
0.217986279601
0.0861698015539
0.0117732065902
0.000222195412544
1.85115278769e-07
2.19818416171e-12
1.33958825162e-19
0.0
5.16987882846e-26
0.0
0.0
3.23117426779e-27
0.0
3.23117426779e-27
1.29246970711e-26
1.29246970711e-26
1.29246970711e-26
3.23117426779e-27
2.90805684101e-26
0.0
3.23117426779e-27
3.23117426779e-27
)
;

boundaryField
{
    ground
    {
        type            zeroGradient;
    }
    top
    {
        type            zeroGradient;
    }
    left
    {
        type            zeroGradient;
    }
    right
    {
        type            zeroGradient;
    }
    defaultFaces
    {
        type            empty;
    }
}


// ************************************************************************* //