/*--------------------------------*- C++ -*----------------------------------*| =========                 |                                                 |
| \      /  F ield         | OpenFOAM: The Open Source CFD Toolbox           |
|  \    /   O peration     | Version:  dev                                   |
|   \  /    A nd           | Web:      www.OpenFOAM.org                      |
|    \/     M anipulation  |                                                 |
\*---------------------------------------------------------------------------*/
FoamFile
{
    version     2.0;
    format      ascii;
    class       volScalarField;
    location    "0";
    object      theta.buoyant;
}
// * * * * * * * * * * * * * * * * * * * * * * * * * * * * * * * * * * * * * //

dimensions      [0 0 0 1 0 0 0];

internalField   nonuniform List<scalar> 
100
(
300.00002338
300.000044742
300.000088131
300.000098147
300.000164655
300.000210349
300.000276823
300.00038584
300.000473944
300.00056256
300.00065179
300.000807167
300.000920134
300.00107822
300.001238029
300.001332973
300.001451711
300.001617144
300.00178522
300.001887505
300.002014955
300.002167829
300.002254156
300.002366531
300.002457201
300.002551655
300.002648378
300.002771336
300.002827072
300.002956545
300.003017842
300.00332045
300.007126509
300.034905417
300.126498657
300.284206415
300.381550889
300.353462084
300.334502527
300.332630938
300.341385073
300.354614497
300.352296739
300.357226996
300.351745706
300.314995161
300.277420077
300.253449697
300.248382356
300.245445915
300.265744698
300.296348838
300.327133806
300.329065485
300.360170269
300.396237398
300.409267942
300.458608979
300.490540304
300.549021598
300.598038718
300.671794179
300.747406072
300.834579169
300.936191954
301.042574373
301.127981057
301.161820462
301.086279346
300.921696516
300.716402383
300.478856265
300.239727492
300.068909549
300.007322636
300.000141656
300.0
300.0
300.0
300.0
300.0
300.0
300.0
300.0
300.0
300.0
300.0
300.0
300.0
300.0
300.0
300.0
300.0
300.0
300.0
300.0
300.0
300.0
300.0
300.0
)
;

boundaryField
{
    ground
    {
        type            zeroGradient;
    }
    top
    {
        type            zeroGradient;
    }
    left
    {
        type            zeroGradient;
    }
    right
    {
        type            zeroGradient;
    }
    defaultFaces
    {
        type            empty;
    }
}


// ************************************************************************* //