/*--------------------------------*- C++ -*----------------------------------*| =========                 |                                                 |
| \      /  F ield         | OpenFOAM: The Open Source CFD Toolbox           |
|  \    /   O peration     | Version:  dev                                   |
|   \  /    A nd           | Web:      www.OpenFOAM.org                      |
|    \/     M anipulation  |                                                 |
\*---------------------------------------------------------------------------*/
FoamFile
{
    version     2.0;
    format      ascii;
    class       volScalarField;
    location    "0";
    object      theta.buoyant;
}
// * * * * * * * * * * * * * * * * * * * * * * * * * * * * * * * * * * * * * //

dimensions      [0 0 0 1 0 0 0];

internalField   nonuniform List<scalar> 
100
(
300.000013319
300.000047027
300.000057665
300.000075539
300.000101447
300.000135414
300.000176768
300.000225198
300.000280206
300.000341207
300.000407599
300.000477554
300.000554212
300.000633046
300.000715093
300.00079982
300.00088442
300.000975102
300.001064558
300.001154659
300.001248518
300.001333204
300.001420489
300.001508927
300.001587148
300.00166574
300.001750897
300.001811031
300.001869914
300.001941019
300.002000864
300.002067373
300.002111862
300.002155789
300.00221496
300.002255015
300.002622004
300.006561394
300.03232163
300.126302837
300.307842937
300.421446342
300.451429197
300.425349604
300.401884498
300.39529365
300.381470087
300.407319953
300.414135535
300.422892665
300.427476088
300.420920992
300.403075732
300.373435763
300.338051827
300.302821417
300.280860396
300.26800159
300.273652018
300.291749603
300.305824684
300.329079559
300.350480878
300.377863319
300.406795282
300.449301822
300.489778403
300.544065675
300.601455545
300.665890237
300.743285412
300.826454769
300.903199817
300.960986284
300.960513956
300.890082539
300.74756288
300.570014202
300.374053508
300.184860691
300.054054582
300.006022291
300.000146089
300.000000439
300.0
300.0
300.0
300.0
300.0
300.0
300.0
300.0
300.0
300.0
300.0
300.0
300.0
300.0
300.0
300.0
)
;

boundaryField
{
    ground
    {
        type            zeroGradient;
    }
    top
    {
        type            zeroGradient;
    }
    left
    {
        type            zeroGradient;
    }
    right
    {
        type            zeroGradient;
    }
    defaultFaces
    {
        type            empty;
    }
}


// ************************************************************************* //