/*--------------------------------*- C++ -*----------------------------------*| =========                 |                                                 |
| \      /  F ield         | OpenFOAM: The Open Source CFD Toolbox           |
|  \    /   O peration     | Version:  dev                                   |
|   \  /    A nd           | Web:      www.OpenFOAM.org                      |
|    \/     M anipulation  |                                                 |
\*---------------------------------------------------------------------------*/
FoamFile
{
    version     2.0;
    format      ascii;
    class       volScalarField;
    location    "0";
    object      theta;
}
// * * * * * * * * * * * * * * * * * * * * * * * * * * * * * * * * * * * * * //

dimensions      [0 0 0 1 0 0 0];

internalField   nonuniform List<scalar> 
100
(
300.000068628
300.00014706
300.00035294
300.000764688
300.001431308
300.002382167
300.003705466
300.005528572
300.007900422
300.010909153
300.014721199
300.019346248
300.024999611
300.031700714
300.039605881
300.048802942
300.059467675
300.071717058
300.085609097
300.101142832
300.118434968
300.137357011
300.157849194
300.179812569
300.2030308
300.227209385
300.25212268
300.277329781
300.302537097
300.327265068
300.351151947
300.373767788
300.39440925
300.41255946
300.427458038
300.438335054
300.44421792
300.442967983
300.430566173
300.406222303
300.372245502
300.326050115
300.264936946
300.190628591
300.11264731
300.047653161
300.011195203
300.0009708
300.0
300.0
300.0
300.0
300.0
300.0
300.0
300.0
300.0
300.0
300.0
300.0
300.0
300.0
300.0
300.0
300.0
300.0
300.0
300.0
300.0
300.0
300.0
300.0
300.0
300.0
300.0
300.0
300.0
300.0
300.0
300.0
300.0
300.0
300.0
300.0
300.0
300.0
300.0
300.0
300.0
300.0
300.0
300.0
300.0
300.0
300.0
300.0
300.0
300.0
300.0
300.0
)
;

boundaryField
{
    ground
    {
        type            zeroGradient;
    }
    top
    {
        type            zeroGradient;
    }
    left
    {
        type            zeroGradient;
    }
    right
    {
        type            zeroGradient;
    }
    defaultFaces
    {
        type            empty;
    }
}


// ************************************************************************* //