/*--------------------------------*- C++ -*----------------------------------*| =========                 |                                                 |
| \      /  F ield         | OpenFOAM: The Open Source CFD Toolbox           |
|  \    /   O peration     | Version:  dev                                   |
|   \  /    A nd           | Web:      www.OpenFOAM.org                      |
|    \/     M anipulation  |                                                 |
\*---------------------------------------------------------------------------*/
FoamFile
{
    version     2.0;
    format      ascii;
    class       volScalarField;
    location    "0";
    object      thetaVar.buoyant;
}
// * * * * * * * * * * * * * * * * * * * * * * * * * * * * * * * * * * * * * //

dimensions      [0 0 0 2 0 0 0];

internalField   nonuniform List<scalar> 
100
(
2.32134706305e-08
2.95366559511e-08
5.06638949052e-08
1.0450774164e-07
1.82223531025e-07
3.43940964992e-07
4.78897621448e-07
9.32486752989e-07
1.34418022245e-06
1.92602467749e-06
2.87713774862e-06
4.06867796258e-06
5.51034847896e-06
7.25396627066e-06
9.16984582071e-06
1.13124364845e-05
1.3687063273e-05
1.64122490927e-05
1.84922324625e-05
2.05071701245e-05
2.38688317419e-05
2.73297070696e-05
2.87840436318e-05
3.28747379483e-05
3.51561113465e-05
3.89530219494e-05
4.15397384844e-05
4.43870106338e-05
4.67548176424e-05
4.97527006149e-05
5.28783487863e-05
5.54715124136e-05
5.83368504502e-05
5.92859314998e-05
6.22522575673e-05
6.39929916444e-05
6.68589016307e-05
8.46605449399e-05
0.00190047783178
0.0321196136706
0.166325783515
0.219779746517
0.190804414716
0.162537178606
0.153866032299
0.157042440155
0.162213010678
0.16038400361
0.168230791845
0.171432592695
0.170218775283
0.163831806926
0.153899506454
0.143869805537
0.13576053937
0.13170265731
0.134747381435
0.142093797259
0.145500343403
0.151675069128
0.154327635538
0.167185657896
0.180387957367
0.186858120694
0.20034572081
0.208828338492
0.217113421855
0.224954896378
0.221995905639
0.218812713129
0.205031408677
0.183449855409
0.169310858501
0.187266892001
0.258883888747
0.342093046262
0.365374179958
0.324376291279
0.218092078213
0.0864237838396
0.0117854112755
0.000222149589668
2.40257985742e-07
2.90805684101e-26
2.90805684101e-26
3.23117426779e-27
3.23117426779e-27
0.0
1.29246970711e-26
3.23117426779e-27
1.29246970711e-26
3.23117426779e-27
1.1632227364e-25
2.90805684101e-26
2.90805684101e-26
5.16987882846e-26
3.23117426779e-27
0.0
3.23117426779e-27
5.16987882846e-26
)
;

boundaryField
{
    ground
    {
        type            zeroGradient;
    }
    top
    {
        type            zeroGradient;
    }
    left
    {
        type            zeroGradient;
    }
    right
    {
        type            zeroGradient;
    }
    defaultFaces
    {
        type            empty;
    }
}


// ************************************************************************* //