/*--------------------------------*- C++ -*----------------------------------*| =========                 |                                                 |
| \      /  F ield         | OpenFOAM: The Open Source CFD Toolbox           |
|  \    /   O peration     | Version:  dev                                   |
|   \  /    A nd           | Web:      www.OpenFOAM.org                      |
|    \/     M anipulation  |                                                 |
\*---------------------------------------------------------------------------*/
FoamFile
{
    version     2.0;
    format      ascii;
    class       volScalarField;
    location    "0";
    object      thetaVar.stable;
}
// * * * * * * * * * * * * * * * * * * * * * * * * * * * * * * * * * * * * * //

dimensions      [0 0 0 2 0 0 0];

internalField   nonuniform List<scalar> 
100
(
2.39907542196e-07
3.23117426779e-27
4.35970819053e-27
1.84704848934e-09
5.7499044253e-07
8.45506341125e-06
4.45772692373e-05
0.00014341099425
0.00034602720254
0.000690916418031
0.0013151646809
0.00198231338071
0.00285479674248
0.00393135177567
0.00509423611062
0.00625987074777
0.00733512459886
0.00822762141177
0.00885646450181
0.00915502204454
0.00911117848498
0.00870912217992
0.00799113574198
0.00702140322767
0.00588627532455
0.00468329289358
0.00350955495033
0.00245032217215
0.0015683675971
0.000897588837988
0.000440698321594
0.000171754453222
4.33217747226e-05
4.21893806262e-06
1.47859310495e-07
1.92266719792e-11
1.1676565725e-25
3.23117426779e-27
1.29246970711e-26
5.16987882846e-26
0.0
2.90805684101e-26
1.29246970711e-26
0.0
8.07793566946e-26
5.16987882846e-26
0.0
1.29246970711e-26
2.90805684101e-26
1.29246970711e-26
3.23117426779e-27
8.07793566946e-26
3.23117426779e-27
2.90805684101e-26
2.90805684101e-26
3.23117426779e-27
3.23117426779e-27
2.90805684101e-26
3.23117426779e-27
2.90805684101e-26
3.23117426779e-27
2.90805684101e-26
3.23117426779e-27
3.23117426779e-27
8.07793566946e-26
1.29246970711e-26
3.23117426779e-27
3.23117426779e-27
3.23117426779e-27
1.29246970711e-26
1.29246970711e-26
3.23117426779e-27
3.23117426779e-27
2.90805684101e-26
0.0
3.23117426779e-27
1.29246970711e-26
3.23117426779e-27
1.29246970711e-26
3.23117426779e-27
2.90805684101e-26
2.90805684101e-26
3.23117426779e-27
1.29246970711e-26
0.0
3.23117426779e-27
1.29246970711e-26
1.29246970711e-26
0.0
2.90805684101e-26
0.0
1.58327539121e-25
3.23117426779e-27
2.90805684101e-26
0.0
3.23117426779e-27
2.90805684101e-26
1.29246970711e-26
3.23117426779e-27
1.29246970711e-26
)
;

boundaryField
{
    ground
    {
        type            zeroGradient;
    }
    top
    {
        type            zeroGradient;
    }
    left
    {
        type            zeroGradient;
    }
    right
    {
        type            zeroGradient;
    }
    defaultFaces
    {
        type            empty;
    }
}


// ************************************************************************* //