/*--------------------------------*- C++ -*----------------------------------*| =========                 |                                                 |
| \      /  F ield         | OpenFOAM: The Open Source CFD Toolbox           |
|  \    /   O peration     | Version:  dev                                   |
|   \  /    A nd           | Web:      www.OpenFOAM.org                      |
|    \/     M anipulation  |                                                 |
\*---------------------------------------------------------------------------*/
FoamFile
{
    version     2.0;
    format      ascii;
    class       volScalarField;
    location    "0";
    object      thetaVar.stable;
}
// * * * * * * * * * * * * * * * * * * * * * * * * * * * * * * * * * * * * * //

dimensions      [0 0 0 2 0 0 0];

internalField   nonuniform List<scalar> 
100
(
2.22875371572e-07
0.0
1.07750361383e-23
1.98637829606e-10
1.27703722935e-07
3.14645798136e-06
2.16927432093e-05
8.12166194144e-05
0.000215730309208
0.000460890772959
0.00092945781397
0.00144717610392
0.00219185197713
0.00312776594496
0.00418991406839
0.00531574969373
0.00642720241727
0.00743731797007
0.00825522783239
0.00879963927059
0.00903346148133
0.00893040587449
0.00846461901686
0.00769164263174
0.00667587401014
0.00550787183046
0.00429038677578
0.00312512584743
0.00209902046583
0.00127299437411
0.000674062997343
0.000293702838219
9.29878619708e-05
1.68690896204e-05
9.16409458191e-07
4.03976978089e-09
2.29557988551e-19
0.0
5.16987882846e-26
3.23117426779e-27
1.29246970711e-26
2.90805684101e-26
5.16987882846e-26
0.0
0.0
3.23117426779e-27
3.23117426779e-27
2.90805684101e-26
8.07793566946e-26
5.16987882846e-26
0.0
1.1632227364e-25
1.29246970711e-26
0.0
1.58327539121e-25
1.29246970711e-26
2.90805684101e-26
8.07793566946e-26
1.29246970711e-26
2.90805684101e-26
2.90805684101e-26
3.23117426779e-27
2.90805684101e-26
1.29246970711e-26
1.29246970711e-26
1.29246970711e-26
3.23117426779e-27
5.16987882846e-26
5.16987882846e-26
8.07793566946e-26
1.1632227364e-25
0.0
2.90805684101e-26
1.29246970711e-26
1.29246970711e-26
1.29246970711e-26
2.90805684101e-26
2.90805684101e-26
3.23117426779e-27
5.16987882846e-26
5.16987882846e-26
2.90805684101e-26
5.16987882846e-26
0.0
5.16987882846e-26
1.29246970711e-26
3.23117426779e-27
1.29246970711e-26
8.07793566946e-26
3.23117426779e-27
0.0
0.0
1.29246970711e-26
1.29246970711e-26
5.16987882846e-26
1.29246970711e-26
1.29246970711e-26
0.0
0.0
1.29246970711e-26
)
;

boundaryField
{
    ground
    {
        type            zeroGradient;
    }
    top
    {
        type            zeroGradient;
    }
    left
    {
        type            zeroGradient;
    }
    right
    {
        type            zeroGradient;
    }
    defaultFaces
    {
        type            empty;
    }
}


// ************************************************************************* //