/*--------------------------------*- C++ -*----------------------------------*| =========                 |                                                 |
| \      /  F ield         | OpenFOAM: The Open Source CFD Toolbox           |
|  \    /   O peration     | Version:  dev                                   |
|   \  /    A nd           | Web:      www.OpenFOAM.org                      |
|    \/     M anipulation  |                                                 |
\*---------------------------------------------------------------------------*/
FoamFile
{
    version     2.0;
    format      ascii;
    class       volScalarField;
    location    "0";
    object      theta.buoyant;
}
// * * * * * * * * * * * * * * * * * * * * * * * * * * * * * * * * * * * * * //

dimensions      [0 0 0 1 0 0 0];

internalField   nonuniform List<scalar> 
100
(
300.000015588
300.00002192
300.000031655
300.00004637
300.000066249
300.000091358
300.000124022
300.000164953
300.000214606
300.000273253
300.000340831
300.000416786
300.000499868
300.000587939
300.000678645
300.000771466
300.000865743
300.000960627
300.001055336
300.001149131
300.001241365
300.001331584
300.001419731
300.001505476
300.001588281
300.001667521
300.001743008
300.001814548
300.001882575
300.001946441
300.002006722
300.002063856
300.002118721
300.002171828
300.002225394
300.002286329
300.002634993
300.006589129
300.032313995
300.125511911
300.312975367
300.417731415
300.442283899
300.42206477
300.390898853
300.389143217
300.400968391
300.397481296
300.427244424
300.430579635
300.426053311
300.414500016
300.397083355
300.374343481
300.34048768
300.299062226
300.273096707
300.268703895
300.278427567
300.297947281
300.30336736
300.325003181
300.357455121
300.373478273
300.416919185
300.447763691
300.499202614
300.545916835
300.60586758
300.674655217
300.745852595
300.827403233
300.905859257
300.962792682
300.96895879
300.892928407
300.747514951
300.57131849
300.37479121
300.185788478
300.054131352
300.00602809
300.000146644
300.000000439
300.0
300.0
300.0
300.0
300.0
300.0
300.0
300.0
300.0
300.0
300.0
300.0
300.0
300.0
300.0
300.0
)
;

boundaryField
{
    ground
    {
        type            zeroGradient;
    }
    top
    {
        type            zeroGradient;
    }
    left
    {
        type            zeroGradient;
    }
    right
    {
        type            zeroGradient;
    }
    defaultFaces
    {
        type            empty;
    }
}


// ************************************************************************* //