/*--------------------------------*- C++ -*----------------------------------*| =========                 |                                                 |
| \      /  F ield         | OpenFOAM: The Open Source CFD Toolbox           |
|  \    /   O peration     | Version:  dev                                   |
|   \  /    A nd           | Web:      www.OpenFOAM.org                      |
|    \/     M anipulation  |                                                 |
\*---------------------------------------------------------------------------*/
FoamFile
{
    version     2.0;
    format      ascii;
    class       volScalarField;
    location    "0";
    object      thetaVar.stable;
}
// * * * * * * * * * * * * * * * * * * * * * * * * * * * * * * * * * * * * * //

dimensions      [0 0 0 2 0 0 0];

internalField   nonuniform List<scalar> 
100
(
1.99868677815e-08
2.90805684101e-26
3.23117426779e-27
1.29246970711e-26
1.29246970711e-26
1.29246970711e-26
2.90805684101e-26
1.29246970711e-26
1.29246970711e-26
1.29246970711e-26
1.29246970711e-26
0.0
1.29246970711e-26
1.29246970711e-26
8.07793566946e-26
3.23117426779e-27
0.0
0.0
1.29246970711e-26
1.29246970711e-26
5.16987882846e-26
5.16987882846e-26
3.23117426779e-27
3.23117426779e-27
1.29246970711e-26
3.23117426779e-27
3.23117426779e-27
2.90805684101e-26
3.23117426779e-27
2.90805684101e-26
0.0
3.23117426779e-27
2.88994533773e-26
5.77000481751e-25
2.8294382799e-19
1.86773606025e-14
4.95551923536e-10
6.83802685233e-07
9.05715446201e-05
0.00211282422014
0.0105189910331
0.015239378018
0.014407748388
0.022280902409
0.027710003895
0.0278601980776
0.0322914462875
0.0251170207822
0.0261605483658
0.0255502600346
0.0238147570231
0.022817571891
0.0216452258421
0.0206531322535
0.0198892242617
0.0194990061352
0.0184526302692
0.017464168632
0.0141802228162
0.0102498174052
0.0108036477929
0.00807845692613
0.00902217442733
0.00895957977285
0.0107632123213
0.00688264547262
0.00823970635216
0.00379189939762
0.00438640532306
0.00237358243601
0.000527327705444
0.000268246979782
2.91263412498e-06
5.55751181497e-10
1.34300476115e-16
3.23117426779e-27
1.29246970711e-26
1.29246970711e-26
0.0
0.0
3.23117426779e-27
1.29246970711e-26
0.0
1.29246970711e-26
0.0
3.23117426779e-27
2.90805684101e-26
3.23117426779e-27
3.23117426779e-27
2.90805684101e-26
2.90805684101e-26
5.16987882846e-26
1.29246970711e-26
5.16987882846e-26
3.23117426779e-27
0.0
3.23117426779e-27
1.1632227364e-25
2.90805684101e-26
1.29246970711e-26
)
;

boundaryField
{
    ground
    {
        type            zeroGradient;
    }
    top
    {
        type            zeroGradient;
    }
    left
    {
        type            zeroGradient;
    }
    right
    {
        type            zeroGradient;
    }
    defaultFaces
    {
        type            empty;
    }
}


// ************************************************************************* //