/*--------------------------------*- C++ -*----------------------------------*| =========                 |                                                 |
| \      /  F ield         | OpenFOAM: The Open Source CFD Toolbox           |
|  \    /   O peration     | Version:  dev                                   |
|   \  /    A nd           | Web:      www.OpenFOAM.org                      |
|    \/     M anipulation  |                                                 |
\*---------------------------------------------------------------------------*/
FoamFile
{
    version     2.0;
    format      ascii;
    class       volScalarField;
    location    "0";
    object      theta;
}
// * * * * * * * * * * * * * * * * * * * * * * * * * * * * * * * * * * * * * //

dimensions      [0 0 0 1 0 0 0];

internalField   nonuniform List<scalar> 
100
(
300.000013319
300.000014779
300.000018132
300.000023759
300.000031806
300.000042255
300.000054979
300.000069801
300.000086506
300.000104863
300.000124634
300.000145578
300.000167463
300.000190066
300.000213175
300.00023659
300.000260113
300.000283548
300.00030669
300.000329323
300.000351219
300.000372148
300.000391889
300.000410242
300.000427059
300.000442198
300.000455638
300.000467344
300.000477408
300.000485795
300.000492792
300.000498489
300.000503062
300.000506734
300.000509813
300.000514958
300.000583142
300.001530276
300.008333269
300.034452775
300.084677362
300.117903541
300.129337409
300.129963435
300.129164748
300.128430865
300.128189265
300.129558955
300.13126998
300.132544669
300.132332173
300.130120462
300.12547502
300.118482548
300.110482234
300.103071966
300.097542935
300.094499339
300.094089356
300.096045164
300.099423126
300.103630545
300.108742616
300.114667589
300.121288754
300.128583903
300.136659899
300.145598498
300.155532594
300.166662057
300.179192018
300.193267455
300.208272112
300.221594935
300.226132461
300.212120094
300.180756042
300.14046199
300.093610911
300.047105635
300.013918832
300.001570635
300.000038688
300.000000117
300.0
300.0
300.0
300.0
300.0
300.0
300.0
300.0
300.0
300.0
300.0
300.0
300.0
300.0
300.0
300.0
)
;

boundaryField
{
    ground
    {
        type            zeroGradient;
    }
    top
    {
        type            zeroGradient;
    }
    left
    {
        type            zeroGradient;
    }
    right
    {
        type            zeroGradient;
    }
    defaultFaces
    {
        type            empty;
    }
}


// ************************************************************************* //