/*--------------------------------*- C++ -*----------------------------------*| =========                 |                                                 |
| \      /  F ield         | OpenFOAM: The Open Source CFD Toolbox           |
|  \    /   O peration     | Version:  dev                                   |
|   \  /    A nd           | Web:      www.OpenFOAM.org                      |
|    \/     M anipulation  |                                                 |
\*---------------------------------------------------------------------------*/
FoamFile
{
    version     2.0;
    format      ascii;
    class       volScalarField;
    location    "0";
    object      thetaVar.stable;
}
// * * * * * * * * * * * * * * * * * * * * * * * * * * * * * * * * * * * * * //

dimensions      [0 0 0 2 0 0 0];

internalField   nonuniform List<scalar> 
100
(
3.23117426779e-27
3.23117426779e-27
2.90805684101e-26
3.23117426779e-27
1.29246970711e-26
1.29246970711e-26
1.58327539121e-25
3.23117426779e-27
3.23117426779e-27
2.90805684101e-26
2.90805684101e-26
0.0
5.16987882846e-26
3.23117426779e-27
3.23117426779e-27
8.07793566946e-26
8.07793566946e-26
1.29246970711e-26
5.16987882846e-26
5.16987882846e-26
1.29246970711e-26
8.07793566946e-26
3.23117426779e-27
3.23117426779e-27
0.0
5.16987882846e-26
0.0
2.90805684101e-26
1.29246970711e-26
1.29246970711e-26
0.0
3.23117426779e-27
2.90805684101e-26
2.88060767552e-26
1.16603450628e-21
1.32116668794e-16
2.38632875463e-11
3.9600495285e-08
9.64870234511e-06
0.00110506030074
0.00579943410847
0.0144317535213
0.0220962380541
0.0101736338409
0.0202925037357
0.0319080595614
0.0279365126306
0.0191514076281
0.0259938044664
0.026993837302
0.0170302553393
0.0187722364391
0.0181700049669
0.0185937743766
0.0189971257464
0.0191743251344
0.0151195044366
0.0148222209951
0.0109371141267
0.0219716562663
0.0125095733724
0.00798376214516
0.0040659033836
0.0104007063256
0.0046536965642
0.00976434755752
0.00332393165324
0.00610892294512
0.00117554292135
0.001842839803
0.00227176433287
0.000103575563108
7.55265034586e-05
9.57143159633e-08
7.09188758704e-13
7.18907549945e-21
1.29246970711e-26
1.29246970711e-26
1.29246970711e-26
1.29246970711e-26
1.29246970711e-26
1.29246970711e-26
5.16987882846e-26
1.29246970711e-26
3.23117426779e-27
2.90805684101e-26
1.29246970711e-26
2.90805684101e-26
3.23117426779e-27
5.16987882846e-26
2.90805684101e-26
2.61725115691e-25
3.23117426779e-27
0.0
2.90805684101e-26
3.23117426779e-27
3.23117426779e-27
3.23117426779e-27
1.29246970711e-26
1.29246970711e-26
)
;

boundaryField
{
    ground
    {
        type            zeroGradient;
    }
    top
    {
        type            zeroGradient;
    }
    left
    {
        type            zeroGradient;
    }
    right
    {
        type            zeroGradient;
    }
    defaultFaces
    {
        type            empty;
    }
}


// ************************************************************************* //