/*--------------------------------*- C++ -*----------------------------------*| =========                 |                                                 |
| \      /  F ield         | OpenFOAM: The Open Source CFD Toolbox           |
|  \    /   O peration     | Version:  dev                                   |
|   \  /    A nd           | Web:      www.OpenFOAM.org                      |
|    \/     M anipulation  |                                                 |
\*---------------------------------------------------------------------------*/
FoamFile
{
    version     2.0;
    format      ascii;
    class       volScalarField;
    location    "0";
    object      thetaVar.buoyant;
}
// * * * * * * * * * * * * * * * * * * * * * * * * * * * * * * * * * * * * * //

dimensions      [0 0 0 2 0 0 0];

internalField   nonuniform List<scalar> 
100
(
2.39907542196e-07
9.58563591279e-05
0.000718184157117
0.00241230796257
0.00543526281998
0.00999265585116
0.0163212209956
0.0245596179036
0.0347332508677
0.0467444423086
0.059425761155
0.0750855598092
0.0920266819252
0.109052416823
0.125853192495
0.141725867882
0.155970062812
0.167932507021
0.177048211763
0.183069888414
0.184474709
0.183530247837
0.178515134029
0.169944622683
0.158457285777
0.144576433957
0.128938442962
0.112245210685
0.095203556532
0.0784768549507
0.0626433648198
0.0481648344102
0.0355823075554
0.0254889592718
0.0158793656664
0.0087913067003
0.00367436916357
0.00104838899764
0.000147126227257
3.43514045565e-06
3.32787259832e-10
1.44400964772e-17
0.0
3.23117426779e-27
0.0
3.23117426779e-27
3.23117426779e-27
0.0
3.23117426779e-27
2.90805684101e-26
3.23117426779e-27
1.29246970711e-26
0.0
2.90805684101e-26
3.23117426779e-27
5.16987882846e-26
0.0
3.23117426779e-27
1.29246970711e-26
1.29246970711e-26
3.23117426779e-27
3.23117426779e-27
1.29246970711e-26
0.0
0.0
1.29246970711e-26
0.0
1.29246970711e-26
3.23117426779e-27
3.23117426779e-27
0.0
0.0
0.0
1.29246970711e-26
0.0
1.29246970711e-26
2.90805684101e-26
1.29246970711e-26
0.0
2.90805684101e-26
0.0
1.29246970711e-26
0.0
1.29246970711e-26
0.0
1.29246970711e-26
0.0
1.29246970711e-26
2.90805684101e-26
0.0
0.0
2.90805684101e-26
1.29246970711e-26
3.23117426779e-27
1.29246970711e-26
3.23117426779e-27
0.0
3.23117426779e-27
3.23117426779e-27
2.90805684101e-26
)
;

boundaryField
{
    ground
    {
        type            zeroGradient;
    }
    top
    {
        type            zeroGradient;
    }
    left
    {
        type            zeroGradient;
    }
    right
    {
        type            zeroGradient;
    }
    defaultFaces
    {
        type            empty;
    }
}


// ************************************************************************* //