/*--------------------------------*- C++ -*----------------------------------*| =========                 |                                                 |
| \      /  F ield         | OpenFOAM: The Open Source CFD Toolbox           |
|  \    /   O peration     | Version:  dev                                   |
|   \  /    A nd           | Web:      www.OpenFOAM.org                      |
|    \/     M anipulation  |                                                 |
\*---------------------------------------------------------------------------*/
FoamFile
{
    version     2.0;
    format      ascii;
    class       volScalarField;
    location    "0";
    object      theta.buoyant;
}
// * * * * * * * * * * * * * * * * * * * * * * * * * * * * * * * * * * * * * //

dimensions      [0 0 0 1 0 0 0];

internalField   nonuniform List<scalar> 
100
(
300.000041189
300.000045564
300.000056385
300.000073284
300.000097438
300.000128793
300.000166979
300.000211453
300.000261577
300.000316654
300.000375961
300.000445851
300.000520921
300.000590869
300.000662336
300.00073469
300.000834683
300.000909429
300.000983197
300.001055326
300.001164604
300.001233722
300.001299008
300.001409259
300.001467129
300.001519371
300.001624848
300.001666899
300.001703143
300.001801266
300.001827243
300.001923776
300.001941283
300.001954929
300.002049574
300.002061863
300.002251607
300.003820654
300.017688209
300.072614047
300.237455169
300.381273788
300.423495358
300.43772881
300.406975194
300.371504788
300.372305576
300.399945333
300.390551657
300.400802243
300.436467341
300.44252887
300.432292785
300.414253105
300.383895504
300.34629426
300.322787911
300.288907924
300.284686961
300.249528265
300.278572959
300.300871923
300.326493614
300.337554619
300.374935724
300.397730568
300.444847538
300.482574269
300.537227202
300.594157358
300.662271875
300.731208453
300.824112642
300.893033266
300.951352363
300.970494466
300.871111193
300.739472429
300.549210605
300.364331431
300.183141972
300.052289271
300.005939621
300.000146891
300.000000428
300.0
300.0
300.0
300.0
300.0
300.0
300.0
300.0
300.0
300.0
300.0
300.0
300.0
300.0
300.0
)
;

boundaryField
{
    ground
    {
        type            zeroGradient;
    }
    top
    {
        type            zeroGradient;
    }
    left
    {
        type            zeroGradient;
    }
    right
    {
        type            zeroGradient;
    }
    defaultFaces
    {
        type            empty;
    }
}


// ************************************************************************* //