/*--------------------------------*- C++ -*----------------------------------*| =========                 |                                                 |
| \      /  F ield         | OpenFOAM: The Open Source CFD Toolbox           |
|  \    /   O peration     | Version:  dev                                   |
|   \  /    A nd           | Web:      www.OpenFOAM.org                      |
|    \/     M anipulation  |                                                 |
\*---------------------------------------------------------------------------*/
FoamFile
{
    version     2.0;
    format      ascii;
    class       volScalarField;
    location    "0";
    object      thetaVar.stable;
}
// * * * * * * * * * * * * * * * * * * * * * * * * * * * * * * * * * * * * * //

dimensions      [0 0 0 2 0 0 0];

internalField   nonuniform List<scalar> 
100
(
3.14577524043e-08
2.32941291823e-08
2.30755134719e-08
4.99368186511e-09
5.99853882108e-11
2.90805684101e-26
0.0
2.90805684101e-26
2.90805684101e-26
2.90805684101e-26
1.29246970711e-26
0.0
1.29246970711e-26
3.23117426779e-27
0.0
3.23117426779e-27
0.0
1.29246970711e-26
0.0
0.0
5.16987882846e-26
0.0
0.0
0.0
1.29246970711e-26
0.0
1.29246970711e-26
3.23117426779e-27
0.0
1.29246970711e-26
3.23117426779e-27
1.46764370379e-08
5.87834710898e-06
0.000571099063867
0.0107868190221
0.0557431349962
0.111949726193
0.157352039531
0.155986864556
0.146699305456
0.133779558392
0.120861842008
0.113070149209
0.0974539137403
0.0823324965692
0.0822569668113
0.0822980463921
0.0801047860891
0.0733861208642
0.0715196987696
0.0641853106705
0.0519002448935
0.0364992568238
0.0588282265746
0.0426696989095
0.025227790201
0.0493819276212
0.0263346813581
0.0390127720106
0.0194338847573
0.0283695498606
0.00877871169668
0.0118482960206
0.00677282018721
0.00126978062026
0.000657130854658
6.39980409045e-05
3.35201841233e-07
3.64546483536e-11
1.29246970711e-26
2.90805684101e-26
3.23117426779e-27
8.07793566946e-26
0.0
0.0
3.23117426779e-27
3.23117426779e-27
1.29246970711e-26
3.23117426779e-27
3.23117426779e-27
3.23117426779e-27
0.0
0.0
3.23117426779e-27
3.23117426779e-27
3.23117426779e-27
5.16987882846e-26
2.90805684101e-26
0.0
3.23117426779e-27
3.23117426779e-27
3.23117426779e-27
3.23117426779e-27
1.29246970711e-26
3.23117426779e-27
3.23117426779e-27
0.0
1.29246970711e-26
3.23117426779e-27
1.29246970711e-26
)
;

boundaryField
{
    ground
    {
        type            zeroGradient;
    }
    top
    {
        type            zeroGradient;
    }
    left
    {
        type            zeroGradient;
    }
    right
    {
        type            zeroGradient;
    }
    defaultFaces
    {
        type            empty;
    }
}


// ************************************************************************* //