/*--------------------------------*- C++ -*----------------------------------*| =========                 |                                                 |
| \      /  F ield         | OpenFOAM: The Open Source CFD Toolbox           |
|  \    /   O peration     | Version:  dev                                   |
|   \  /    A nd           | Web:      www.OpenFOAM.org                      |
|    \/     M anipulation  |                                                 |
\*---------------------------------------------------------------------------*/
FoamFile
{
    version     2.0;
    format      ascii;
    class       volScalarField;
    location    "0";
    object      theta.buoyant;
}
// * * * * * * * * * * * * * * * * * * * * * * * * * * * * * * * * * * * * * //

dimensions      [0 0 0 1 0 0 0];

internalField   nonuniform List<scalar> 
100
(
300.000011675
300.000014879
300.000034333
300.000048267
300.00006191
300.000096333
300.000111675
300.000163786
300.00020878
300.000270889
300.000338427
300.000411008
300.000487635
300.00059722
300.000677669
300.000774825
300.000873252
300.000989495
300.001039085
300.001105483
300.001224723
300.001310714
300.001416754
300.001544095
300.001601687
300.001680025
300.001742138
300.001825856
300.001893411
300.001963506
300.002035884
300.002090414
300.002105616
300.002142745
300.002203925
300.00226369
300.002672642
300.006568923
300.032353222
300.125487847
300.313002624
300.41766834
300.442321632
300.422043222
300.390873882
300.389170574
300.401024514
300.397377566
300.427294688
300.430528072
300.426044176
300.414482435
300.397099368
300.374391433
300.340433331
300.299107745
300.273016068
300.268678753
300.278473461
300.297883091
300.303300341
300.325001695
300.357447375
300.373456817
300.416891012
300.447681759
300.499253798
300.545854537
300.605866615
300.674566047
300.745843257
300.827393881
300.905875507
300.962754511
300.968956135
300.892892549
300.747486641
300.571338382
300.374763342
300.18580887
300.054152828
300.006024677
300.000150178
300.0
300.0
300.0
300.0
300.0
300.0
300.0
300.0
300.0
300.0
300.0
300.0
300.0
300.0
300.0
300.0
300.0
)
;

boundaryField
{
    ground
    {
        type            zeroGradient;
    }
    top
    {
        type            zeroGradient;
    }
    left
    {
        type            zeroGradient;
    }
    right
    {
        type            zeroGradient;
    }
    defaultFaces
    {
        type            empty;
    }
}


// ************************************************************************* //