/*--------------------------------*- C++ -*----------------------------------*| =========                 |                                                 |
| \      /  F ield         | OpenFOAM: The Open Source CFD Toolbox           |
|  \    /   O peration     | Version:  dev                                   |
|   \  /    A nd           | Web:      www.OpenFOAM.org                      |
|    \/     M anipulation  |                                                 |
\*---------------------------------------------------------------------------*/
FoamFile
{
    version     2.0;
    format      ascii;
    class       volScalarField;
    location    "0";
    object      theta;
}
// * * * * * * * * * * * * * * * * * * * * * * * * * * * * * * * * * * * * * //

dimensions      [0 0 0 1 0 0 0];

internalField   nonuniform List<scalar> 
100
(
300.000009901
300.000009901
300.000019802
300.000024753
300.000029703
300.000044555
300.000049505
300.000069307
300.000084158
300.000103959
300.000123761
300.000143562
300.000163363
300.000193065
300.000212865
300.000237617
300.000262367
300.000292068
300.000301967
300.000316817
300.000346517
300.000366317
300.000391068
300.000420768
300.000430667
300.000445515
300.000455413
300.000470262
300.000480161
300.000490059
300.000499956
300.000504904
300.00049995
300.000499947
300.000504894
300.000509842
300.000589028
300.001519362
300.008341035
300.034446426
300.08467951
300.117889098
300.129353392
300.129948883
300.129156475
300.128430722
300.1282047
300.129529805
300.131284203
300.132544493
300.132339787
300.130123258
300.125469792
300.11849547
300.110469641
300.103073743
300.097519244
300.094491398
300.094102323
300.096022813
300.099406799
300.103635634
300.108729205
300.114652617
300.121277056
300.128557984
300.136673147
300.145582582
300.155528233
300.166638473
300.179194421
300.193268276
300.208277134
300.221585035
300.226132629
300.212112477
300.18074866
300.140466443
300.093604469
300.047111065
300.013924283
300.001569732
300.00003962
300.0
300.0
300.0
300.0
300.0
300.0
300.0
300.0
300.0
300.0
300.0
300.0
300.0
300.0
300.0
300.0
300.0
)
;

boundaryField
{
    ground
    {
        type            zeroGradient;
    }
    top
    {
        type            zeroGradient;
    }
    left
    {
        type            zeroGradient;
    }
    right
    {
        type            zeroGradient;
    }
    defaultFaces
    {
        type            empty;
    }
}


// ************************************************************************* //