/*--------------------------------*- C++ -*----------------------------------*| =========                 |                                                 |
| \      /  F ield         | OpenFOAM: The Open Source CFD Toolbox           |
|  \    /   O peration     | Version:  dev                                   |
|   \  /    A nd           | Web:      www.OpenFOAM.org                      |
|    \/     M anipulation  |                                                 |
\*---------------------------------------------------------------------------*/
FoamFile
{
    version     2.0;
    format      ascii;
    class       volScalarField;
    location    "0";
    object      thetaVar.stable;
}
// * * * * * * * * * * * * * * * * * * * * * * * * * * * * * * * * * * * * * //

dimensions      [0 0 0 2 0 0 0];

internalField   nonuniform List<scalar> 
100
(
1.64727925269e-08
1.20085856706e-08
8.3929667197e-09
3.99507996768e-09
2.21151039153e-10
3.2951438072e-24
8.597084739e-26
3.00505652873e-26
5.17060016138e-26
3.24456155056e-27
3.23117426779e-27
5.16987882846e-26
3.23117426779e-27
1.29246970711e-26
3.23117426779e-27
2.90805684101e-26
1.29246970711e-26
5.16987882846e-26
0.0
1.29246970711e-26
2.90805684101e-26
0.0
3.23117426779e-27
1.29246970711e-26
0.0
0.0
3.23117426779e-27
5.16987882846e-26
3.23117426779e-27
1.29246970711e-26
0.0
1.29250859064e-26
2.9005044e-26
6.41013545316e-25
3.07261027601e-19
2.84103741525e-14
4.8327802055e-10
7.19329872737e-07
9.57335105465e-05
0.00230068851724
0.00887091437792
0.0176215609579
0.0205529399203
0.0250606840357
0.0335835933728
0.0308079402443
0.0251958530136
0.0293613115255
0.0215890371643
0.0234922189621
0.0254997584572
0.0264062233402
0.0249795094361
0.0209426380069
0.019370364548
0.0218235552796
0.0217215814746
0.017909045625
0.0126517372371
0.00711448196677
0.012705161278
0.0107599527829
0.00551895605627
0.0121164218196
0.00532882391142
0.00888016263275
0.00311793687394
0.00500407655573
0.00128266594583
0.00104983964655
0.000495635189252
2.33802297157e-05
3.24659330147e-06
7.72679543292e-10
7.4452323348e-14
1.45077451531e-25
5.16987882846e-26
5.16987882846e-26
3.23117426779e-27
3.23117426779e-27
1.29246970711e-26
3.23117426779e-27
0.0
3.23117426779e-27
1.29246970711e-26
1.29246970711e-26
1.29246970711e-26
0.0
1.29246970711e-26
1.29246970711e-26
3.23117426779e-27
3.23117426779e-27
1.1632227364e-25
0.0
2.90805684101e-26
2.90805684101e-26
3.23117426779e-27
2.90805684101e-26
3.23117426779e-27
8.07793566946e-26
)
;

boundaryField
{
    ground
    {
        type            zeroGradient;
    }
    top
    {
        type            zeroGradient;
    }
    left
    {
        type            zeroGradient;
    }
    right
    {
        type            zeroGradient;
    }
    defaultFaces
    {
        type            empty;
    }
}


// ************************************************************************* //