/*--------------------------------*- C++ -*----------------------------------*| =========                 |                                                 |
| \      /  F ield         | OpenFOAM: The Open Source CFD Toolbox           |
|  \    /   O peration     | Version:  dev                                   |
|   \  /    A nd           | Web:      www.OpenFOAM.org                      |
|    \/     M anipulation  |                                                 |
\*---------------------------------------------------------------------------*/
FoamFile
{
    version     2.0;
    format      ascii;
    class       volScalarField;
    location    "0";
    object      thetaVar.buoyant;
}
// * * * * * * * * * * * * * * * * * * * * * * * * * * * * * * * * * * * * * //

dimensions      [0 0 0 2 0 0 0];

internalField   nonuniform List<scalar> 
100
(
2.22875371572e-07
6.96086017926e-05
0.000538631460653
0.00188388840678
0.00434851061186
0.00800357241779
0.01300477383
0.019492858061
0.0275343748053
0.0371223205222
0.0474208835755
0.0606367458347
0.0750369904938
0.090231894409
0.105970306631
0.121766703528
0.137074968427
0.151340189188
0.163765989737
0.174746900727
0.182558419383
0.183924711404
0.185227667823
0.183551755573
0.176947704068
0.16637374286
0.152856338655
0.137005981644
0.119489715763
0.101124309363
0.0827602090888
0.0651839328175
0.0490548187967
0.0356390895022
0.0233380011351
0.0136584692657
0.0064593336362
0.00216526833334
0.000418178671139
2.31470233243e-05
8.80916496441e-08
4.93933711085e-12
1.04618309565e-18
1.29246970711e-26
3.23117426779e-27
1.29246970711e-26
1.29246970711e-26
3.23117426779e-27
3.23117426779e-27
1.29246970711e-26
0.0
3.23117426779e-27
0.0
3.23117426779e-27
1.29246970711e-26
3.23117426779e-27
2.90805684101e-26
3.23117426779e-27
2.90805684101e-26
3.23117426779e-27
0.0
1.29246970711e-26
0.0
3.23117426779e-27
2.90805684101e-26
1.29246970711e-26
1.29246970711e-26
3.23117426779e-27
3.23117426779e-27
3.23117426779e-27
1.29246970711e-26
1.29246970711e-26
2.90805684101e-26
0.0
3.23117426779e-27
0.0
1.29246970711e-26
0.0
0.0
2.90805684101e-26
0.0
0.0
2.90805684101e-26
1.29246970711e-26
3.23117426779e-27
0.0
1.29246970711e-26
1.29246970711e-26
1.29246970711e-26
2.90805684101e-26
0.0
1.29246970711e-26
5.16987882846e-26
3.23117426779e-27
3.23117426779e-27
5.16987882846e-26
2.90805684101e-26
3.23117426779e-27
1.29246970711e-26
5.16987882846e-26
)
;

boundaryField
{
    ground
    {
        type            zeroGradient;
    }
    top
    {
        type            zeroGradient;
    }
    left
    {
        type            zeroGradient;
    }
    right
    {
        type            zeroGradient;
    }
    defaultFaces
    {
        type            empty;
    }
}


// ************************************************************************* //