/*--------------------------------*- C++ -*----------------------------------*| =========                 |                                                 |
| \      /  F ield         | OpenFOAM: The Open Source CFD Toolbox           |
|  \    /   O peration     | Version:  dev                                   |
|   \  /    A nd           | Web:      www.OpenFOAM.org                      |
|    \/     M anipulation  |                                                 |
\*---------------------------------------------------------------------------*/
FoamFile
{
    version     2.0;
    format      ascii;
    class       volVectorField;
    location    "0";
    object      u;
}
// * * * * * * * * * * * * * * * * * * * * * * * * * * * * * * * * * * * * * //

dimensions      [0 1 -1 0 0 0 0];

internalField   nonuniform List<vector> 
100
(
(0.0 0.0 -7.74775095426e-06)
(0.0 0.0 -2.38322779428e-05)
(0.0 0.0 -4.22630024117e-05)
(0.0 0.0 -6.5208622467e-05)
(0.0 0.0 -9.47799119119e-05)
(0.0 0.0 -0.000132845712434)
(0.0 0.0 -0.000180918999697)
(0.0 0.0 -0.000240033239381)
(0.0 0.0 -0.000310629257065)
(0.0 0.0 -0.000392475260041)
(0.0 0.0 -0.000484625065755)
(0.0 0.0 -0.000585416485075)
(0.0 0.0 -0.000692480386235)
(0.0 0.0 -0.000802851618687)
(0.0 0.0 -0.000913026354863)
(0.0 0.0 -0.00101911275036)
(0.0 0.0 -0.00111704964346)
(0.0 0.0 -0.00120287094163)
(0.0 0.0 -0.00127231896064)
(0.0 0.0 -0.00132402690161)
(0.0 0.0 -0.0013517370718)
(0.0 0.0 -0.00135209181895)
(0.0 0.0 -0.00133771025996)
(0.0 0.0 -0.00129825696057)
(0.0 0.0 -0.00123260333111)
(0.0 0.0 -0.00114681222386)
(0.0 0.0 -0.00104586904508)
(0.0 0.0 -0.000933956864365)
(0.0 0.0 -0.000815705517988)
(0.0 0.0 -0.000696114753943)
(0.0 0.0 -0.000580006816156)
(0.0 0.0 -0.000471668510265)
(0.0 0.0 -0.000374627177808)
(0.0 0.0 -0.00029146279722)
(0.0 0.0 -0.000223678896537)
(0.0 0.0 -0.000171670326013)
(0.0 0.0 -0.000134798417727)
(0.0 0.0 -0.000111568883342)
(0.0 0.0 -9.9833324056e-05)
(0.0 0.0 -9.70309675596e-05)
(0.0 0.0 -9.97414349665e-05)
(0.0 0.0 -0.000103429058844)
(0.0 0.0 -0.000106731685717)
(0.0 0.0 -0.000109737900852)
(0.0 0.0 -0.000112495587296)
(0.0 0.0 -0.000115043496663)
(0.0 0.0 -0.000117381191263)
(0.0 0.0 -0.000119466948559)
(0.0 0.0 -0.000121256633103)
(0.0 0.0 -0.000122731975824)
(0.0 0.0 -0.000123888774649)
(0.0 0.0 -0.000124712121744)
(0.0 0.0 -0.000125183614176)
(0.0 0.0 -0.000125319144121)
(0.0 0.0 -0.000125180924456)
(0.0 0.0 -0.000124831998271)
(0.0 0.0 -0.000124286107729)
(0.0 0.0 -0.000123520579861)
(0.0 0.0 -0.000122529912691)
(0.0 0.0 -0.00012133782239)
(0.0 0.0 -0.000119956729973)
(0.0 0.0 -0.000118376071101)
(0.0 0.0 -0.000116611699805)
(0.0 0.0 -0.000114732442966)
(0.0 0.0 -0.000112806509099)
(0.0 0.0 -0.000110847369196)
(0.0 0.0 -0.000108841119351)
(0.0 0.0 -0.000106788150563)
(0.0 0.0 -0.000104670149824)
(0.0 0.0 -0.00010241508004)
(0.0 0.0 -9.99529602353e-05)
(0.0 0.0 -9.72714718765e-05)
(0.0 0.0 -9.43751327192e-05)
(0.0 0.0 -9.12567144275e-05)
(0.0 0.0 -8.79547466854e-05)
(0.0 0.0 -8.45536078627e-05)
(0.0 0.0 -8.10984319883e-05)
(0.0 0.0 -7.76011985965e-05)
(0.0 0.0 -7.40988143013e-05)
(0.0 0.0 -7.06043761286e-05)
(0.0 0.0 -6.70841113521e-05)
(0.0 0.0 -6.35344813204e-05)
(0.0 0.0 -5.99641883309e-05)
(0.0 0.0 -5.63543676199e-05)
(0.0 0.0 -5.27277249138e-05)
(0.0 0.0 -4.91241363678e-05)
(0.0 0.0 -4.5546038514e-05)
(0.0 0.0 -4.20113645475e-05)
(0.0 0.0 -3.85210895848e-05)
(0.0 0.0 -3.50474158286e-05)
(0.0 0.0 -3.1589382597e-05)
(0.0 0.0 -2.8133032523e-05)
(0.0 0.0 -2.46730972352e-05)
(0.0 0.0 -2.12206271565e-05)
(0.0 0.0 -1.77811959662e-05)
(0.0 0.0 -1.43805712804e-05)
(0.0 0.0 -1.10419876223e-05)
(0.0 0.0 -7.78639498467e-06)
(0.0 0.0 -4.6211518231e-06)
(0.0 0.0 -1.52971599769e-06)
)
;

boundaryField
{
    ground
    {
        type            zeroGradient;
    }
    top
    {
        type            zeroGradient;
    }
    left
    {
        type            zeroGradient;
    }
    right
    {
        type            zeroGradient;
    }
    defaultFaces
    {
        type            empty;
    }
}


// ************************************************************************* //