/*--------------------------------*- C++ -*----------------------------------*| =========                 |                                                 |
| \      /  F ield         | OpenFOAM: The Open Source CFD Toolbox           |
|  \    /   O peration     | Version:  dev                                   |
|   \  /    A nd           | Web:      www.OpenFOAM.org                      |
|    \/     M anipulation  |                                                 |
\*---------------------------------------------------------------------------*/
FoamFile
{
    version     2.0;
    format      ascii;
    class       volVectorField;
    location    "0";
    object      u;
}
// * * * * * * * * * * * * * * * * * * * * * * * * * * * * * * * * * * * * * //

dimensions      [0 1 -1 0 0 0 0];

internalField   nonuniform List<vector> 
100
(
(0.0 0.0 -0.000625241266186)
(0.0 0.0 -0.0018960104546)
(0.0 0.0 -0.00317614836176)
(0.0 0.0 -0.00444215073095)
(0.0 0.0 -0.00571147205182)
(0.0 0.0 -0.00700323236678)
(0.0 0.0 -0.0082987928347)
(0.0 0.0 -0.00957852021662)
(0.0 0.0 -0.0108599843681)
(0.0 0.0 -0.0121563058162)
(0.0 0.0 -0.0134373466243)
(0.0 0.0 -0.0147051834775)
(0.0 0.0 -0.0159970174155)
(0.0 0.0 -0.0172793643438)
(0.0 0.0 -0.0185444226967)
(0.0 0.0 -0.0198091698165)
(0.0 0.0 -0.0210718506154)
(0.0 0.0 -0.0223128557547)
(0.0 0.0 -0.0235362397641)
(0.0 0.0 -0.0247465848189)
(0.0 0.0 -0.0259415624425)
(0.0 0.0 -0.0270954487508)
(0.0 0.0 -0.0281860593116)
(0.0 0.0 -0.0292511764512)
(0.0 0.0 -0.0302835386652)
(0.0 0.0 -0.0312468302893)
(0.0 0.0 -0.032139832438)
(0.0 0.0 -0.0329611345447)
(0.0 0.0 -0.0337082627204)
(0.0 0.0 -0.0343603916153)
(0.0 0.0 -0.0349313475252)
(0.0 0.0 -0.0354347582155)
(0.0 0.0 -0.035830011549)
(0.0 0.0 -0.0360910021257)
(0.0 0.0 -0.0362025789301)
(0.0 0.0 -0.0361627799649)
(0.0 0.0 -0.0359643372639)
(0.0 0.0 -0.0355636850459)
(0.0 0.0 -0.0348532876995)
(0.0 0.0 -0.0338092301017)
(0.0 0.0 -0.0325426449901)
(0.0 0.0 -0.0310073461331)
(0.0 0.0 -0.0291406854421)
(0.0 0.0 -0.0270166943218)
(0.0 0.0 -0.0248573279273)
(0.0 0.0 -0.0229940398936)
(0.0 0.0 -0.0217305929453)
(0.0 0.0 -0.0209491177141)
(0.0 0.0 -0.0202962071327)
(0.0 0.0 -0.0196432153307)
(0.0 0.0 -0.0189855998286)
(0.0 0.0 -0.0183223810223)
(0.0 0.0 -0.0176276027242)
(0.0 0.0 -0.0169291886811)
(0.0 0.0 -0.016265162085)
(0.0 0.0 -0.0156112905526)
(0.0 0.0 -0.0149589938229)
(0.0 0.0 -0.0143251388769)
(0.0 0.0 -0.0137014993198)
(0.0 0.0 -0.0130802607327)
(0.0 0.0 -0.0124608593028)
(0.0 0.0 -0.0118503407424)
(0.0 0.0 -0.0112665478768)
(0.0 0.0 -0.0107187900839)
(0.0 0.0 -0.0101859991336)
(0.0 0.0 -0.00965644257882)
(0.0 0.0 -0.00914442486184)
(0.0 0.0 -0.00864816768755)
(0.0 0.0 -0.008165899476)
(0.0 0.0 -0.00771647515086)
(0.0 0.0 -0.00729465274004)
(0.0 0.0 -0.00688445723166)
(0.0 0.0 -0.00647169859777)
(0.0 0.0 -0.00607818683141)
(0.0 0.0 -0.00572483318209)
(0.0 0.0 -0.00537839975633)
(0.0 0.0 -0.00502679458232)
(0.0 0.0 -0.00468524035263)
(0.0 0.0 -0.00438489355242)
(0.0 0.0 -0.00411414509337)
(0.0 0.0 -0.00383669433985)
(0.0 0.0 -0.00356825145185)
(0.0 0.0 -0.003328710002)
(0.0 0.0 -0.00309209813844)
(0.0 0.0 -0.00286396105774)
(0.0 0.0 -0.00264055880033)
(0.0 0.0 -0.00240086676325)
(0.0 0.0 -0.00218820877966)
(0.0 0.0 -0.00198916453355)
(0.0 0.0 -0.00177774614571)
(0.0 0.0 -0.00157837247698)
(0.0 0.0 -0.00140479821851)
(0.0 0.0 -0.00123671128078)
(0.0 0.0 -0.00104832812741)
(0.0 0.0 -0.000877354267789)
(0.0 0.0 -0.000733034591086)
(0.0 0.0 -0.000571174873262)
(0.0 0.0 -0.000403961082975)
(0.0 0.0 -0.000245587720231)
(0.0 0.0 -2.59733221904e-05)
)
;

boundaryField
{
    ground
    {
        type            zeroGradient;
    }
    top
    {
        type            zeroGradient;
    }
    left
    {
        type            zeroGradient;
    }
    right
    {
        type            zeroGradient;
    }
    defaultFaces
    {
        type            empty;
    }
}


// ************************************************************************* //