/*--------------------------------*- C++ -*----------------------------------*| =========                 |                                                 |
| \      /  F ield         | OpenFOAM: The Open Source CFD Toolbox           |
|  \    /   O peration     | Version:  dev                                   |
|   \  /    A nd           | Web:      www.OpenFOAM.org                      |
|    \/     M anipulation  |                                                 |
\*---------------------------------------------------------------------------*/
FoamFile
{
    version     2.0;
    format      ascii;
    class       volVectorField;
    location    "0";
    object      u;
}
// * * * * * * * * * * * * * * * * * * * * * * * * * * * * * * * * * * * * * //

dimensions      [0 1 -1 0 0 0 0];

internalField   nonuniform List<vector> 
100
(
(0.0 0.0 -2.95182106047e-06)
(0.0 0.0 -9.14554065868e-06)
(0.0 0.0 -1.64814968445e-05)
(0.0 0.0 -2.59663166487e-05)
(0.0 0.0 -3.85482649123e-05)
(0.0 0.0 -5.50441148108e-05)
(0.0 0.0 -7.60731867406e-05)
(0.0 0.0 -0.000101993304545)
(0.0 0.0 -0.000132850277355)
(0.0 0.0 -0.000168345573187)
(0.0 0.0 -0.000207828459503)
(0.0 0.0 -0.000250314444459)
(0.0 0.0 -0.000294513492419)
(0.0 0.0 -0.000338900221417)
(0.0 0.0 -0.000381792411116)
(0.0 0.0 -0.00042142718545)
(0.0 0.0 -0.00045609042143)
(0.0 0.0 -0.000484198338232)
(0.0 0.0 -0.00050438026023)
(0.0 0.0 -0.00051560747101)
(0.0 0.0 -0.000517530529076)
(0.0 0.0 -0.00051131849177)
(0.0 0.0 -0.00049437468433)
(0.0 0.0 -0.00046852681144)
(0.0 0.0 -0.000435501282226)
(0.0 0.0 -0.000396618296741)
(0.0 0.0 -0.000353535358832)
(0.0 0.0 -0.000308098966586)
(0.0 0.0 -0.000262152051023)
(0.0 0.0 -0.00021744225039)
(0.0 0.0 -0.000175520644965)
(0.0 0.0 -0.000137646990432)
(0.0 0.0 -0.000104747596917)
(0.0 0.0 -7.73806775186e-05)
(0.0 0.0 -5.57455264088e-05)
(0.0 0.0 -3.97111688005e-05)
(0.0 0.0 -2.88594797311e-05)
(0.0 0.0 -2.25470081617e-05)
(0.0 0.0 -1.99605728486e-05)
(0.0 0.0 -2.01329055784e-05)
(0.0 0.0 -2.16848608326e-05)
(0.0 0.0 -2.33137247082e-05)
(0.0 0.0 -2.48700914695e-05)
(0.0 0.0 -2.63692997476e-05)
(0.0 0.0 -2.77860680607e-05)
(0.0 0.0 -2.90926732707e-05)
(0.0 0.0 -3.02680931847e-05)
(0.0 0.0 -3.1305894551e-05)
(0.0 0.0 -3.22167043698e-05)
(0.0 0.0 -3.30232219111e-05)
(0.0 0.0 -3.37490620034e-05)
(0.0 0.0 -3.44064975179e-05)
(0.0 0.0 -3.49890285747e-05)
(0.0 0.0 -3.547284816e-05)
(0.0 0.0 -3.58279489103e-05)
(0.0 0.0 -3.60339367879e-05)
(0.0 0.0 -3.6091917067e-05)
(0.0 0.0 -3.60255932127e-05)
(0.0 0.0 -3.5869181441e-05)
(0.0 0.0 -3.56474598616e-05)
(0.0 0.0 -3.53610280479e-05)
(0.0 0.0 -3.49873782302e-05)
(0.0 0.0 -3.44981704371e-05)
(0.0 0.0 -3.38830626959e-05)
(0.0 0.0 -3.31627356783e-05)
(0.0 0.0 -3.23782678504e-05)
(0.0 0.0 -3.15627159996e-05)
(0.0 0.0 -3.07168111795e-05)
(0.0 0.0 -2.98111432453e-05)
(0.0 0.0 -2.88175511326e-05)
(0.0 0.0 -2.77436480624e-05)
(0.0 0.0 -2.66356015399e-05)
(0.0 0.0 -2.55410767486e-05)
(0.0 0.0 -2.44659650599e-05)
(0.0 0.0 -2.33717491533e-05)
(0.0 0.0 -2.22227033096e-05)
(0.0 0.0 -2.10335240791e-05)
(0.0 0.0 -1.98575202419e-05)
(0.0 0.0 -1.87229492558e-05)
(0.0 0.0 -1.759833989e-05)
(0.0 0.0 -1.64427678573e-05)
(0.0 0.0 -1.52772528213e-05)
(0.0 0.0 -1.41655072935e-05)
(0.0 0.0 -1.31228519794e-05)
(0.0 0.0 -1.21008363554e-05)
(0.0 0.0 -1.10843075789e-05)
(0.0 0.0 -1.01279972916e-05)
(0.0 0.0 -9.25099700001e-06)
(0.0 0.0 -8.39560888514e-06)
(0.0 0.0 -7.5489571183e-06)
(0.0 0.0 -6.7594650882e-06)
(0.0 0.0 -6.00432889296e-06)
(0.0 0.0 -5.24028874871e-06)
(0.0 0.0 -4.50329491566e-06)
(0.0 0.0 -3.78778777856e-06)
(0.0 0.0 -3.06565928876e-06)
(0.0 0.0 -2.36383610421e-06)
(0.0 0.0 -1.67260772158e-06)
(0.0 0.0 -9.90597041606e-07)
(0.0 0.0 -3.28899641163e-07)
)
;

boundaryField
{
    ground
    {
        type            zeroGradient;
    }
    top
    {
        type            zeroGradient;
    }
    left
    {
        type            zeroGradient;
    }
    right
    {
        type            zeroGradient;
    }
    defaultFaces
    {
        type            empty;
    }
}


// ************************************************************************* //