/*--------------------------------*- C++ -*----------------------------------*| =========                 |                                                 |
| \      /  F ield         | OpenFOAM: The Open Source CFD Toolbox           |
|  \    /   O peration     | Version:  dev                                   |
|   \  /    A nd           | Web:      www.OpenFOAM.org                      |
|    \/     M anipulation  |                                                 |
\*---------------------------------------------------------------------------*/
FoamFile
{
    version     2.0;
    format      ascii;
    class       volVectorField;
    location    "0";
    object      u;
}
// * * * * * * * * * * * * * * * * * * * * * * * * * * * * * * * * * * * * * //

dimensions      [0 1 -1 0 0 0 0];

internalField   nonuniform List<vector> 
100
(
(0.0 0.0 -0.00080058939774)
(0.0 0.0 -0.00241431293402)
(0.0 0.0 -0.00405948612314)
(0.0 0.0 -0.00574167146777)
(0.0 0.0 -0.00745173241113)
(0.0 0.0 -0.00917522329833)
(0.0 0.0 -0.010932196785)
(0.0 0.0 -0.0127267792536)
(0.0 0.0 -0.0145626415393)
(0.0 0.0 -0.0164550102004)
(0.0 0.0 -0.0184045096678)
(0.0 0.0 -0.020412277951)
(0.0 0.0 -0.0224691784827)
(0.0 0.0 -0.0245739074432)
(0.0 0.0 -0.0267434854925)
(0.0 0.0 -0.0289971545275)
(0.0 0.0 -0.0313206651188)
(0.0 0.0 -0.0336987527551)
(0.0 0.0 -0.0361330428325)
(0.0 0.0 -0.0386374705698)
(0.0 0.0 -0.0412013404096)
(0.0 0.0 -0.0438234895681)
(0.0 0.0 -0.0465238700684)
(0.0 0.0 -0.0492911006542)
(0.0 0.0 -0.0520963941038)
(0.0 0.0 -0.0549239969552)
(0.0 0.0 -0.0577705127659)
(0.0 0.0 -0.0606474910408)
(0.0 0.0 -0.0635500771291)
(0.0 0.0 -0.0664598358791)
(0.0 0.0 -0.069350444865)
(0.0 0.0 -0.0722107946844)
(0.0 0.0 -0.0750200190212)
(0.0 0.0 -0.0778128761381)
(0.0 0.0 -0.0807118859479)
(0.0 0.0 -0.0837405232719)
(0.0 0.0 -0.0864576962166)
(0.0 0.0 -0.0888481948816)
(0.0 0.0 -0.0910454629163)
(0.0 0.0 -0.0930465041479)
(0.0 0.0 -0.0948536273803)
(0.0 0.0 -0.096403604274)
(0.0 0.0 -0.0976301374251)
(0.0 0.0 -0.0985329181111)
(0.0 0.0 -0.0990855877774)
(0.0 0.0 -0.0993174827305)
(0.0 0.0 -0.0993166152592)
(0.0 0.0 -0.0991373730904)
(0.0 0.0 -0.0988064469329)
(0.0 0.0 -0.0983433579884)
(0.0 0.0 -0.0977626410898)
(0.0 0.0 -0.0969855673889)
(0.0 0.0 -0.0960162754327)
(0.0 0.0 -0.0948926283893)
(0.0 0.0 -0.093620294779)
(0.0 0.0 -0.09220981386)
(0.0 0.0 -0.0906680660284)
(0.0 0.0 -0.0890064574338)
(0.0 0.0 -0.0872722820931)
(0.0 0.0 -0.0854734195662)
(0.0 0.0 -0.0835929070346)
(0.0 0.0 -0.0816476446486)
(0.0 0.0 -0.0796804102556)
(0.0 0.0 -0.0777211698647)
(0.0 0.0 -0.0757670121574)
(0.0 0.0 -0.0737959992504)
(0.0 0.0 -0.0717482969773)
(0.0 0.0 -0.0694321381376)
(0.0 0.0 -0.0665356874543)
(0.0 0.0 -0.0631111566827)
(0.0 0.0 -0.0594434076698)
(0.0 0.0 -0.0555267083819)
(0.0 0.0 -0.0515283342934)
(0.0 0.0 -0.047998559612)
(0.0 0.0 -0.0453083135363)
(0.0 0.0 -0.0430344410463)
(0.0 0.0 -0.0408068642735)
(0.0 0.0 -0.0386200070974)
(0.0 0.0 -0.0364970126569)
(0.0 0.0 -0.0344425630859)
(0.0 0.0 -0.0324367279215)
(0.0 0.0 -0.030451995701)
(0.0 0.0 -0.028521774322)
(0.0 0.0 -0.0266344556296)
(0.0 0.0 -0.0247757882418)
(0.0 0.0 -0.0229980880746)
(0.0 0.0 -0.0212766691508)
(0.0 0.0 -0.0195626455676)
(0.0 0.0 -0.0178960914042)
(0.0 0.0 -0.0162805383432)
(0.0 0.0 -0.0146757388543)
(0.0 0.0 -0.013091196223)
(0.0 0.0 -0.0114952122394)
(0.0 0.0 -0.00990305850263)
(0.0 0.0 -0.00837729485324)
(0.0 0.0 -0.00686046429981)
(0.0 0.0 -0.00533156531735)
(0.0 0.0 -0.00383239320972)
(0.0 0.0 -0.00230731870202)
(0.0 0.0 -0.000762128537384)
)
;

boundaryField
{
    ground
    {
        type            zeroGradient;
    }
    top
    {
        type            zeroGradient;
    }
    left
    {
        type            zeroGradient;
    }
    right
    {
        type            zeroGradient;
    }
    defaultFaces
    {
        type            empty;
    }
}


// ************************************************************************* //