/*--------------------------------*- C++ -*----------------------------------*| =========                 |                                                 |
| \      /  F ield         | OpenFOAM: The Open Source CFD Toolbox           |
|  \    /   O peration     | Version:  dev                                   |
|   \  /    A nd           | Web:      www.OpenFOAM.org                      |
|    \/     M anipulation  |                                                 |
\*---------------------------------------------------------------------------*/
FoamFile
{
    version     2.0;
    format      ascii;
    class       volVectorField;
    location    "0";
    object      u;
}
// * * * * * * * * * * * * * * * * * * * * * * * * * * * * * * * * * * * * * //

dimensions      [0 1 -1 0 0 0 0];

internalField   nonuniform List<vector> 
100
(
(0.0 0.0 -0.000107072740719)
(0.0 0.0 -0.000334580858945)
(0.0 0.0 -0.000578118719836)
(0.0 0.0 -0.000817147132092)
(0.0 0.0 -0.00104953235997)
(0.0 0.0 -0.00128933387906)
(0.0 0.0 -0.00152589368195)
(0.0 0.0 -0.00175740697683)
(0.0 0.0 -0.00199365975365)
(0.0 0.0 -0.00222639360119)
(0.0 0.0 -0.00246290044918)
(0.0 0.0 -0.00271609442672)
(0.0 0.0 -0.0029647742955)
(0.0 0.0 -0.00320404904513)
(0.0 0.0 -0.00344841791203)
(0.0 0.0 -0.00367970962314)
(0.0 0.0 -0.00390229435341)
(0.0 0.0 -0.00413780539476)
(0.0 0.0 -0.00438992484683)
(0.0 0.0 -0.0046376059117)
(0.0 0.0 -0.00486531312803)
(0.0 0.0 -0.00509536450682)
(0.0 0.0 -0.00533373116713)
(0.0 0.0 -0.00555986712332)
(0.0 0.0 -0.00578944442297)
(0.0 0.0 -0.00600897355251)
(0.0 0.0 -0.00622435606061)
(0.0 0.0 -0.00645677253668)
(0.0 0.0 -0.00667180032029)
(0.0 0.0 -0.00689342527378)
(0.0 0.0 -0.00711613748058)
(0.0 0.0 -0.00731897344361)
(0.0 0.0 -0.00752562615043)
(0.0 0.0 -0.00773160094401)
(0.0 0.0 -0.00794685668852)
(0.0 0.0 -0.00814049595902)
(0.0 0.0 -0.00833131865129)
(0.0 0.0 -0.0085426093591)
(0.0 0.0 -0.00876415848172)
(0.0 0.0 -0.00915291992119)
(0.0 0.0 -0.00972247148223)
(0.0 0.0 -0.0101293547252)
(0.0 0.0 -0.0103943669252)
(0.0 0.0 -0.0105838727115)
(0.0 0.0 -0.0107572208766)
(0.0 0.0 -0.0109312996735)
(0.0 0.0 -0.0111020157023)
(0.0 0.0 -0.0112918787873)
(0.0 0.0 -0.0114694673591)
(0.0 0.0 -0.0115813072544)
(0.0 0.0 -0.0116222278157)
(0.0 0.0 -0.0115876495015)
(0.0 0.0 -0.0114640590062)
(0.0 0.0 -0.0112803373707)
(0.0 0.0 -0.0110634665851)
(0.0 0.0 -0.0108731850816)
(0.0 0.0 -0.0107004550494)
(0.0 0.0 -0.0105840237805)
(0.0 0.0 -0.0105358905479)
(0.0 0.0 -0.0105225120468)
(0.0 0.0 -0.0105420688847)
(0.0 0.0 -0.0105680918969)
(0.0 0.0 -0.0105980955037)
(0.0 0.0 -0.010612982875)
(0.0 0.0 -0.0106253299988)
(0.0 0.0 -0.0106656244222)
(0.0 0.0 -0.0107082218146)
(0.0 0.0 -0.0107436971383)
(0.0 0.0 -0.010798402461)
(0.0 0.0 -0.0108762757688)
(0.0 0.0 -0.0109488975799)
(0.0 0.0 -0.0110456643625)
(0.0 0.0 -0.0111729604852)
(0.0 0.0 -0.0112502439839)
(0.0 0.0 -0.0111811035328)
(0.0 0.0 -0.010742194679)
(0.0 0.0 -0.00996957064837)
(0.0 0.0 -0.0090889910352)
(0.0 0.0 -0.00804324633886)
(0.0 0.0 -0.0069592903753)
(0.0 0.0 -0.00613221713544)
(0.0 0.0 -0.00569207475354)
(0.0 0.0 -0.00544081200542)
(0.0 0.0 -0.00518538276249)
(0.0 0.0 -0.00491467975035)
(0.0 0.0 -0.00464052837543)
(0.0 0.0 -0.00434756889298)
(0.0 0.0 -0.00404929887676)
(0.0 0.0 -0.00375481428028)
(0.0 0.0 -0.00347694008515)
(0.0 0.0 -0.00318995649024)
(0.0 0.0 -0.00286451978898)
(0.0 0.0 -0.00255082770008)
(0.0 0.0 -0.00222213214314)
(0.0 0.0 -0.00187648118125)
(0.0 0.0 -0.0015513168698)
(0.0 0.0 -0.00121980212468)
(0.0 0.0 -0.00087923779108)
(0.0 0.0 -0.00052942029506)
(0.0 0.0 -0.000174001596416)
)
;

boundaryField
{
    ground
    {
        type            zeroGradient;
    }
    top
    {
        type            zeroGradient;
    }
    left
    {
        type            zeroGradient;
    }
    right
    {
        type            zeroGradient;
    }
    defaultFaces
    {
        type            empty;
    }
}


// ************************************************************************* //