/*--------------------------------*- C++ -*----------------------------------*| =========                 |                                                 |
| \      /  F ield         | OpenFOAM: The Open Source CFD Toolbox           |
|  \    /   O peration     | Version:  dev                                   |
|   \  /    A nd           | Web:      www.OpenFOAM.org                      |
|    \/     M anipulation  |                                                 |
\*---------------------------------------------------------------------------*/
FoamFile
{
    version     2.0;
    format      ascii;
    class       volVectorField;
    location    "0";
    object      u;
}
// * * * * * * * * * * * * * * * * * * * * * * * * * * * * * * * * * * * * * //

dimensions      [0 1 -1 0 0 0 0];

internalField   nonuniform List<vector> 
100
(
(0.0 0.0 -0.000119063273685)
(0.0 0.0 -0.000357816293976)
(0.0 0.0 -0.000598162070885)
(0.0 0.0 -0.00084004763782)
(0.0 0.0 -0.0010832385366)
(0.0 0.0 -0.00132821247115)
(0.0 0.0 -0.0015748445299)
(0.0 0.0 -0.00182269195552)
(0.0 0.0 -0.00207150205451)
(0.0 0.0 -0.00232091868362)
(0.0 0.0 -0.00257106962257)
(0.0 0.0 -0.00282166976932)
(0.0 0.0 -0.00307205226623)
(0.0 0.0 -0.00332218185906)
(0.0 0.0 -0.00357196433904)
(0.0 0.0 -0.00382111419692)
(0.0 0.0 -0.00406922613887)
(0.0 0.0 -0.00431594694872)
(0.0 0.0 -0.00456145983564)
(0.0 0.0 -0.00480566034661)
(0.0 0.0 -0.00504811617652)
(0.0 0.0 -0.00528872625954)
(0.0 0.0 -0.00552748074273)
(0.0 0.0 -0.00576424160894)
(0.0 0.0 -0.0059990823693)
(0.0 0.0 -0.00623179777937)
(0.0 0.0 -0.00646187112181)
(0.0 0.0 -0.00668909167985)
(0.0 0.0 -0.00691271644736)
(0.0 0.0 -0.00713286555783)
(0.0 0.0 -0.00734972025399)
(0.0 0.0 -0.0075629594374)
(0.0 0.0 -0.00777313892351)
(0.0 0.0 -0.0079798933125)
(0.0 0.0 -0.0081840992832)
(0.0 0.0 -0.00838621230822)
(0.0 0.0 -0.00858580233747)
(0.0 0.0 -0.00878391363224)
(0.0 0.0 -0.00899575657718)
(0.0 0.0 -0.00929333863905)
(0.0 0.0 -0.009825852904)
(0.0 0.0 -0.0103114632248)
(0.0 0.0 -0.0105998358942)
(0.0 0.0 -0.0107987315281)
(0.0 0.0 -0.0109779950865)
(0.0 0.0 -0.0111485799723)
(0.0 0.0 -0.0113168172939)
(0.0 0.0 -0.0114896388208)
(0.0 0.0 -0.0116716653968)
(0.0 0.0 -0.0118285365082)
(0.0 0.0 -0.0119392205879)
(0.0 0.0 -0.0119807137171)
(0.0 0.0 -0.0119364379294)
(0.0 0.0 -0.0118149874227)
(0.0 0.0 -0.0116162302918)
(0.0 0.0 -0.011376683255)
(0.0 0.0 -0.0111403588578)
(0.0 0.0 -0.0109449834647)
(0.0 0.0 -0.0108039161096)
(0.0 0.0 -0.0107153453524)
(0.0 0.0 -0.010676095983)
(0.0 0.0 -0.0106672835852)
(0.0 0.0 -0.0106665004425)
(0.0 0.0 -0.0106730020349)
(0.0 0.0 -0.0106861501408)
(0.0 0.0 -0.0107027790671)
(0.0 0.0 -0.0107206519621)
(0.0 0.0 -0.0107409135247)
(0.0 0.0 -0.0107662987123)
(0.0 0.0 -0.0107995781025)
(0.0 0.0 -0.0108451709123)
(0.0 0.0 -0.0109063683801)
(0.0 0.0 -0.010987220918)
(0.0 0.0 -0.0110835260721)
(0.0 0.0 -0.0111533852863)
(0.0 0.0 -0.0110607331338)
(0.0 0.0 -0.0106035524317)
(0.0 0.0 -0.0098261270375)
(0.0 0.0 -0.0089066188732)
(0.0 0.0 -0.00786700101843)
(0.0 0.0 -0.00680973518914)
(0.0 0.0 -0.00597882165132)
(0.0 0.0 -0.00552758144381)
(0.0 0.0 -0.00525643078111)
(0.0 0.0 -0.00498827475256)
(0.0 0.0 -0.00470869398645)
(0.0 0.0 -0.00442016924391)
(0.0 0.0 -0.00412353581562)
(0.0 0.0 -0.00382023697818)
(0.0 0.0 -0.00351145788322)
(0.0 0.0 -0.00319758816504)
(0.0 0.0 -0.00287889582982)
(0.0 0.0 -0.0025566419088)
(0.0 0.0 -0.0022311738282)
(0.0 0.0 -0.00190141473944)
(0.0 0.0 -0.00156661458239)
(0.0 0.0 -0.00122677160746)
(0.0 0.0 -0.000882274885886)
(0.0 0.0 -0.000532928765969)
(0.0 0.0 -0.000178453314861)
)
;

boundaryField
{
    ground
    {
        type            zeroGradient;
    }
    top
    {
        type            zeroGradient;
    }
    left
    {
        type            zeroGradient;
    }
    right
    {
        type            zeroGradient;
    }
    defaultFaces
    {
        type            empty;
    }
}


// ************************************************************************* //