/*--------------------------------*- C++ -*----------------------------------*| =========                 |                                                 |
| \      /  F ield         | OpenFOAM: The Open Source CFD Toolbox           |
|  \    /   O peration     | Version:  dev                                   |
|   \  /    A nd           | Web:      www.OpenFOAM.org                      |
|    \/     M anipulation  |                                                 |
\*---------------------------------------------------------------------------*/
FoamFile
{
    version     2.0;
    format      ascii;
    class       volVectorField;
    location    "0";
    object      u;
}
// * * * * * * * * * * * * * * * * * * * * * * * * * * * * * * * * * * * * * //

dimensions      [0 1 -1 0 0 0 0];

internalField   nonuniform List<vector> 
100
(
(0.0 0.0 -0.00011492417342)
(0.0 0.0 -0.000345898564343)
(0.0 0.0 -0.000578787485181)
(0.0 0.0 -0.00081291339358)
(0.0 0.0 -0.00104803895964)
(0.0 0.0 -0.00128430527195)
(0.0 0.0 -0.0015216862951)
(0.0 0.0 -0.00175988001335)
(0.0 0.0 -0.00199838988422)
(0.0 0.0 -0.00223723158121)
(0.0 0.0 -0.00247677505672)
(0.0 0.0 -0.00271700700292)
(0.0 0.0 -0.00295771448911)
(0.0 0.0 -0.00319853605779)
(0.0 0.0 -0.00343926358456)
(0.0 0.0 -0.00367965452403)
(0.0 0.0 -0.00391935796186)
(0.0 0.0 -0.00415853646565)
(0.0 0.0 -0.00439709629892)
(0.0 0.0 -0.00463451929382)
(0.0 0.0 -0.00487024813659)
(0.0 0.0 -0.00510395336754)
(0.0 0.0 -0.0053358615674)
(0.0 0.0 -0.00556591807228)
(0.0 0.0 -0.00579388490608)
(0.0 0.0 -0.00601978712181)
(0.0 0.0 -0.00624368507352)
(0.0 0.0 -0.0064652882541)
(0.0 0.0 -0.0066844371353)
(0.0 0.0 -0.0069010053849)
(0.0 0.0 -0.00711431813399)
(0.0 0.0 -0.00732435254935)
(0.0 0.0 -0.00753108368962)
(0.0 0.0 -0.00773531423618)
(0.0 0.0 -0.00793733213317)
(0.0 0.0 -0.00813704641357)
(0.0 0.0 -0.0083356109091)
(0.0 0.0 -0.00853553161932)
(0.0 0.0 -0.00876729525474)
(0.0 0.0 -0.00915325963616)
(0.0 0.0 -0.00972209256091)
(0.0 0.0 -0.010132788061)
(0.0 0.0 -0.0103858490785)
(0.0 0.0 -0.0105813768283)
(0.0 0.0 -0.0107633083744)
(0.0 0.0 -0.0109457433518)
(0.0 0.0 -0.0111221028705)
(0.0 0.0 -0.0113104245328)
(0.0 0.0 -0.0114753384126)
(0.0 0.0 -0.0115875288929)
(0.0 0.0 -0.011630259454)
(0.0 0.0 -0.0115965201808)
(0.0 0.0 -0.0114830328895)
(0.0 0.0 -0.0112995127058)
(0.0 0.0 -0.0110826652124)
(0.0 0.0 -0.0108761408221)
(0.0 0.0 -0.0107102241061)
(0.0 0.0 -0.0105958140957)
(0.0 0.0 -0.0105361248321)
(0.0 0.0 -0.0105265534841)
(0.0 0.0 -0.0105386818569)
(0.0 0.0 -0.0105550883598)
(0.0 0.0 -0.0105797324159)
(0.0 0.0 -0.0106095112887)
(0.0 0.0 -0.0106413511109)
(0.0 0.0 -0.0106766567139)
(0.0 0.0 -0.0107162212094)
(0.0 0.0 -0.0107610670209)
(0.0 0.0 -0.0108139073105)
(0.0 0.0 -0.0108788018288)
(0.0 0.0 -0.0109602178201)
(0.0 0.0 -0.0110623704321)
(0.0 0.0 -0.0111784605785)
(0.0 0.0 -0.0112674724479)
(0.0 0.0 -0.0111956514787)
(0.0 0.0 -0.0107579547614)
(0.0 0.0 -0.00999484347493)
(0.0 0.0 -0.0090852889475)
(0.0 0.0 -0.0080438465361)
(0.0 0.0 -0.00697435848782)
(0.0 0.0 -0.00613883794979)
(0.0 0.0 -0.00569717149374)
(0.0 0.0 -0.00543781020488)
(0.0 0.0 -0.00518006396068)
(0.0 0.0 -0.00491222025753)
(0.0 0.0 -0.00463728310866)
(0.0 0.0 -0.00435587684187)
(0.0 0.0 -0.00406820529896)
(0.0 0.0 -0.00377467396915)
(0.0 0.0 -0.00347621203876)
(0.0 0.0 -0.00317208155788)
(0.0 0.0 -0.00286183452838)
(0.0 0.0 -0.00254603803928)
(0.0 0.0 -0.0022242755684)
(0.0 0.0 -0.00189596959697)
(0.0 0.0 -0.00156161274997)
(0.0 0.0 -0.00122181881277)
(0.0 0.0 -0.000876680973435)
(0.0 0.0 -0.000527463190664)
(0.0 0.0 -0.00017607504115)
)
;

boundaryField
{
    ground
    {
        type            zeroGradient;
    }
    top
    {
        type            zeroGradient;
    }
    left
    {
        type            zeroGradient;
    }
    right
    {
        type            zeroGradient;
    }
    defaultFaces
    {
        type            empty;
    }
}


// ************************************************************************* //