/*--------------------------------*- C++ -*----------------------------------*| =========                 |                                                 |
| \      /  F ield         | OpenFOAM: The Open Source CFD Toolbox           |
|  \    /   O peration     | Version:  dev                                   |
|   \  /    A nd           | Web:      www.OpenFOAM.org                      |
|    \/     M anipulation  |                                                 |
\*---------------------------------------------------------------------------*/
FoamFile
{
    version     2.0;
    format      ascii;
    class       volVectorField;
    location    "0";
    object      u.buoyant;
}
// * * * * * * * * * * * * * * * * * * * * * * * * * * * * * * * * * * * * * //

dimensions      [0 1 -1 0 0 0 0];

internalField   nonuniform List<vector> 
100
(
(0.0 0.0 0.00954557327395)
(0.0 0.0 0.0790457973516)
(0.0 0.0 0.191005731292)
(0.0 0.0 0.352891116232)
(0.0 0.0 0.571301258912)
(0.0 0.0 0.832324378404)
(0.0 0.0 1.09421671632)
(0.0 0.0 1.34708412726)
(0.0 0.0 1.6110161245)
(0.0 0.0 1.9081029105)
(0.0 0.0 2.24149523704)
(0.0 0.0 2.60092345393)
(0.0 0.0 2.97077609306)
(0.0 0.0 3.34445374638)
(0.0 0.0 3.71146302976)
(0.0 0.0 4.06233702352)
(0.0 0.0 4.39759744351)
(0.0 0.0 4.72209351638)
(0.0 0.0 5.04973184021)
(0.0 0.0 5.38351075687)
(0.0 0.0 5.67996958875)
(0.0 0.0 5.92040678533)
(0.0 0.0 6.10266203723)
(0.0 0.0 6.24136066954)
(0.0 0.0 6.36069497482)
(0.0 0.0 6.48012655894)
(0.0 0.0 6.60338134795)
(0.0 0.0 6.70176025632)
(0.0 0.0 6.7606013668)
(0.0 0.0 6.77979330048)
(0.0 0.0 6.75962241242)
(0.0 0.0 6.70054216795)
(0.0 0.0 6.60324806185)
(0.0 0.0 6.46843857077)
(0.0 0.0 6.30168970984)
(0.0 0.0 6.15882304393)
(0.0 0.0 6.05579959669)
(0.0 0.0 5.93164396295)
(0.0 0.0 5.70391532175)
(0.0 0.0 5.37597898918)
(0.0 0.0 5.02632926996)
(0.0 0.0 4.65866767425)
(0.0 0.0 4.2094526459)
(0.0 0.0 3.73550830949)
(0.0 0.0 3.2940620323)
(0.0 0.0 2.91545666566)
(0.0 0.0 2.59797323234)
(0.0 0.0 2.32533150366)
(0.0 0.0 2.09071445607)
(0.0 0.0 1.88797794965)
(0.0 0.0 1.71108813522)
(0.0 0.0 1.55554991824)
(0.0 0.0 1.41822815853)
(0.0 0.0 1.29634617541)
(0.0 0.0 1.1875666729)
(0.0 0.0 1.09006065035)
(0.0 0.0 1.00226706071)
(0.0 0.0 0.922861682456)
(0.0 0.0 0.85083216522)
(0.0 0.0 0.785250086963)
(0.0 0.0 0.725276733952)
(0.0 0.0 0.670282754007)
(0.0 0.0 0.619707118498)
(0.0 0.0 0.573043830205)
(0.0 0.0 0.529846126708)
(0.0 0.0 0.489701514856)
(0.0 0.0 0.452292747092)
(0.0 0.0 0.417301811046)
(0.0 0.0 0.384316686746)
(0.0 0.0 0.352788357712)
(0.0 0.0 0.322675914067)
(0.0 0.0 0.294146563567)
(0.0 0.0 0.267268756304)
(0.0 0.0 0.242048585979)
(0.0 0.0 0.218335379513)
(0.0 0.0 0.196121369366)
(0.0 0.0 0.175467965198)
(0.0 0.0 0.156382436103)
(0.0 0.0 0.138799164998)
(0.0 0.0 0.122688558113)
(0.0 0.0 0.108000989863)
(0.0 0.0 0.0946068204306)
(0.0 0.0 0.0824609256258)
(0.0 0.0 0.071497108054)
(0.0 0.0 0.0615702091418)
(0.0 0.0 0.052623006865)
(0.0 0.0 0.0446338032607)
(0.0 0.0 0.0374893402506)
(0.0 0.0 0.0311128581715)
(0.0 0.0 0.0254601818997)
(0.0 0.0 0.020469854754)
(0.0 0.0 0.016099806534)
(0.0 0.0 0.0123213746075)
(0.0 0.0 0.00909285128151)
(0.0 0.0 0.00636245742874)
(0.0 0.0 0.00411523556225)
(0.0 0.0 0.00237051095385)
(0.0 0.0 0.00110479550797)
(0.0 0.0 0.000300388077311)
(0.0 0.0 3.442816883e-05)
)
;

boundaryField
{
    ground
    {
        type            zeroGradient;
    }
    top
    {
        type            zeroGradient;
    }
    left
    {
        type            zeroGradient;
    }
    right
    {
        type            zeroGradient;
    }
    defaultFaces
    {
        type            empty;
    }
}


// ************************************************************************* //