/*--------------------------------*- C++ -*----------------------------------*| =========                 |                                                 |
| \      /  F ield         | OpenFOAM: The Open Source CFD Toolbox           |
|  \    /   O peration     | Version:  dev                                   |
|   \  /    A nd           | Web:      www.OpenFOAM.org                      |
|    \/     M anipulation  |                                                 |
\*---------------------------------------------------------------------------*/
FoamFile
{
    version     2.0;
    format      ascii;
    class       volVectorField;
    location    "0";
    object      u.buoyant;
}
// * * * * * * * * * * * * * * * * * * * * * * * * * * * * * * * * * * * * * //

dimensions      [0 1 -1 0 0 0 0];

internalField   nonuniform List<vector> 
100
(
(0.0 0.0 0.00256186349767)
(0.0 0.0 0.0276062411504)
(0.0 0.0 0.077391483749)
(0.0 0.0 0.147378548951)
(0.0 0.0 0.230293996404)
(0.0 0.0 0.317004262457)
(0.0 0.0 0.399511729417)
(0.0 0.0 0.48006935581)
(0.0 0.0 0.562026761511)
(0.0 0.0 0.646629766306)
(0.0 0.0 0.734751038907)
(0.0 0.0 0.827121878361)
(0.0 0.0 0.924469994976)
(0.0 0.0 1.02748762909)
(0.0 0.0 1.13695066055)
(0.0 0.0 1.25356122581)
(0.0 0.0 1.37835012055)
(0.0 0.0 1.51217562019)
(0.0 0.0 1.65636720931)
(0.0 0.0 1.81161791089)
(0.0 0.0 1.97987422057)
(0.0 0.0 2.16216041411)
(0.0 0.0 2.36046064216)
(0.0 0.0 2.57726938662)
(0.0 0.0 2.81319702581)
(0.0 0.0 3.07368675288)
(0.0 0.0 3.35974958313)
(0.0 0.0 3.67398023808)
(0.0 0.0 4.02672376381)
(0.0 0.0 4.41416386606)
(0.0 0.0 4.85383398563)
(0.0 0.0 5.37250841186)
(0.0 0.0 5.90209630598)
(0.0 0.0 6.4507082945)
(0.0 0.0 6.95577836218)
(0.0 0.0 7.29232167316)
(0.0 0.0 7.337607316)
(0.0 0.0 7.90647482393)
(0.0 0.0 8.43679357999)
(0.0 0.0 8.73072627373)
(0.0 0.0 8.96453271663)
(0.0 0.0 8.97382468111)
(0.0 0.0 8.94009270778)
(0.0 0.0 8.67141726642)
(0.0 0.0 8.35490082356)
(0.0 0.0 8.20961793919)
(0.0 0.0 7.99302783369)
(0.0 0.0 7.55974989323)
(0.0 0.0 7.0418417858)
(0.0 0.0 6.65638679851)
(0.0 0.0 6.12134047373)
(0.0 0.0 5.47190973295)
(0.0 0.0 5.01261612971)
(0.0 0.0 5.00928915004)
(0.0 0.0 4.93759660477)
(0.0 0.0 4.83874428402)
(0.0 0.0 4.925581884)
(0.0 0.0 4.82021449557)
(0.0 0.0 4.84854443868)
(0.0 0.0 4.76125755052)
(0.0 0.0 4.79132668635)
(0.0 0.0 4.65642899669)
(0.0 0.0 4.68729012183)
(0.0 0.0 4.57792375094)
(0.0 0.0 4.49349549452)
(0.0 0.0 4.40981068713)
(0.0 0.0 4.24002635648)
(0.0 0.0 4.02659928306)
(0.0 0.0 3.74564349806)
(0.0 0.0 3.45949355581)
(0.0 0.0 3.19403482194)
(0.0 0.0 2.9550492866)
(0.0 0.0 2.73606262611)
(0.0 0.0 2.53567386387)
(0.0 0.0 2.35005828585)
(0.0 0.0 2.17814528579)
(0.0 0.0 2.01927906541)
(0.0 0.0 1.87145137561)
(0.0 0.0 1.73417675742)
(0.0 0.0 1.60587589727)
(0.0 0.0 1.48591399551)
(0.0 0.0 1.37333661098)
(0.0 0.0 1.26748608667)
(0.0 0.0 1.16759652971)
(0.0 0.0 1.07304675516)
(0.0 0.0 0.9832334427)
(0.0 0.0 0.897665177267)
(0.0 0.0 0.815796891361)
(0.0 0.0 0.737145718796)
(0.0 0.0 0.661158709524)
(0.0 0.0 0.587346941289)
(0.0 0.0 0.515180714307)
(0.0 0.0 0.443950805303)
(0.0 0.0 0.372481313653)
(0.0 0.0 0.297565047382)
(0.0 0.0 0.218500170137)
(0.0 0.0 0.141818491889)
(0.0 0.0 0.0757833724781)
(0.0 0.0 0.0275682352241)
(0.0 0.0 0.00262846285484)
)
;

boundaryField
{
    ground
    {
        type            zeroGradient;
    }
    top
    {
        type            zeroGradient;
    }
    left
    {
        type            zeroGradient;
    }
    right
    {
        type            zeroGradient;
    }
    defaultFaces
    {
        type            empty;
    }
}


// ************************************************************************* //