/*--------------------------------*- C++ -*----------------------------------*| =========                 |                                                 |
| \      /  F ield         | OpenFOAM: The Open Source CFD Toolbox           |
|  \    /   O peration     | Version:  dev                                   |
|   \  /    A nd           | Web:      www.OpenFOAM.org                      |
|    \/     M anipulation  |                                                 |
\*---------------------------------------------------------------------------*/
FoamFile
{
    version     2.0;
    format      ascii;
    class       volVectorField;
    location    "0";
    object      u.buoyant;
}
// * * * * * * * * * * * * * * * * * * * * * * * * * * * * * * * * * * * * * //

dimensions      [0 1 -1 0 0 0 0];

internalField   nonuniform List<vector> 
100
(
(0.0 0.0 -7.74775095426e-06)
(0.0 0.0 0.144372155755)
(0.0 0.0 0.246097582907)
(0.0 0.0 0.356274594845)
(0.0 0.0 0.470489201621)
(0.0 0.0 0.586769848961)
(0.0 0.0 0.703316298941)
(0.0 0.0 0.819487378218)
(0.0 0.0 0.934557245046)
(0.0 0.0 1.0475782735)
(0.0 0.0 1.16613702907)
(0.0 0.0 1.26429900641)
(0.0 0.0 1.3603406949)
(0.0 0.0 1.45140069726)
(0.0 0.0 1.53471329151)
(0.0 0.0 1.60923984658)
(0.0 0.0 1.67402619761)
(0.0 0.0 1.72822261048)
(0.0 0.0 1.77110282246)
(0.0 0.0 1.80207521268)
(0.0 0.0 1.82078241444)
(0.0 0.0 1.82705541115)
(0.0 0.0 1.82079024203)
(0.0 0.0 1.80211083189)
(0.0 0.0 1.77135401749)
(0.0 0.0 1.72903367835)
(0.0 0.0 1.67584712253)
(0.0 0.0 1.61266529777)
(0.0 0.0 1.54050913272)
(0.0 0.0 1.46052613713)
(0.0 0.0 1.37396610685)
(0.0 0.0 1.28215452848)
(0.0 0.0 1.18646464765)
(0.0 0.0 1.07832814811)
(0.0 0.0 0.981844449787)
(0.0 0.0 0.877825636125)
(0.0 0.0 0.76938365706)
(0.0 0.0 0.670289754019)
(0.0 0.0 0.605168301324)
(0.0 0.0 0.550044224157)
(0.0 0.0 0.490220443534)
(0.0 0.0 0.440721900699)
(0.0 0.0 0.406438726624)
(0.0 0.0 0.368133856997)
(0.0 0.0 0.335122468312)
(0.0 0.0 0.312540668988)
(0.0 0.0 0.285392936175)
(0.0 0.0 0.263334551887)
(0.0 0.0 0.244225516974)
(0.0 0.0 0.22469149993)
(0.0 0.0 0.212398582304)
(0.0 0.0 0.196610573899)
(0.0 0.0 0.183881780559)
(0.0 0.0 0.171718830001)
(0.0 0.0 0.160568991113)
(0.0 0.0 0.150903765722)
(0.0 0.0 0.141258308971)
(0.0 0.0 0.13331064013)
(0.0 0.0 0.125080337323)
(0.0 0.0 0.118293487157)
(0.0 0.0 0.111392017085)
(0.0 0.0 0.105364346523)
(0.0 0.0 0.0997024110435)
(0.0 0.0 0.0941293132979)
(0.0 0.0 0.0892997721334)
(0.0 0.0 0.083972250188)
(0.0 0.0 0.0798137271856)
(0.0 0.0 0.0755120887945)
(0.0 0.0 0.0716342199874)
(0.0 0.0 0.0678916246975)
(0.0 0.0 0.0640126237963)
(0.0 0.0 0.0609607612019)
(0.0 0.0 0.0577605048155)
(0.0 0.0 0.0544529451884)
(0.0 0.0 0.0517739151856)
(0.0 0.0 0.0489826173987)
(0.0 0.0 0.0463559967455)
(0.0 0.0 0.0437513123422)
(0.0 0.0 0.0412900100985)
(0.0 0.0 0.038932386726)
(0.0 0.0 0.0367418275745)
(0.0 0.0 0.0344649304106)
(0.0 0.0 0.0323313328289)
(0.0 0.0 0.0302582280983)
(0.0 0.0 0.0282365404943)
(0.0 0.0 0.0262600108929)
(0.0 0.0 0.02430182593)
(0.0 0.0 0.0224116545035)
(0.0 0.0 0.0205354279857)
(0.0 0.0 0.0186896707094)
(0.0 0.0 0.0168725145893)
(0.0 0.0 0.0150796774543)
(0.0 0.0 0.0133059704478)
(0.0 0.0 0.0115458754841)
(0.0 0.0 0.00979197779246)
(0.0 0.0 0.00803785152537)
(0.0 0.0 0.00627702398849)
(0.0 0.0 0.00450431666362)
(0.0 0.0 0.00271305211999)
(0.0 0.0 0.000718732021133)
)
;

boundaryField
{
    ground
    {
        type            zeroGradient;
    }
    top
    {
        type            zeroGradient;
    }
    left
    {
        type            zeroGradient;
    }
    right
    {
        type            zeroGradient;
    }
    defaultFaces
    {
        type            empty;
    }
}


// ************************************************************************* //