/*--------------------------------*- C++ -*----------------------------------*| =========                 |                                                 |
| \      /  F ield         | OpenFOAM: The Open Source CFD Toolbox           |
|  \    /   O peration     | Version:  dev                                   |
|   \  /    A nd           | Web:      www.OpenFOAM.org                      |
|    \/     M anipulation  |                                                 |
\*---------------------------------------------------------------------------*/
FoamFile
{
    version     2.0;
    format      ascii;
    class       volVectorField;
    location    "0";
    object      u.buoyant;
}
// * * * * * * * * * * * * * * * * * * * * * * * * * * * * * * * * * * * * * //

dimensions      [0 1 -1 0 0 0 0];

internalField   nonuniform List<vector> 
100
(
(0.0 0.0 -0.00011492417342)
(0.0 0.0 0.0830918877991)
(0.0 0.0 0.139124001355)
(0.0 0.0 0.195853481566)
(0.0 0.0 0.254263234741)
(0.0 0.0 0.314487149002)
(0.0 0.0 0.375766385993)
(0.0 0.0 0.438732473051)
(0.0 0.0 0.503744644211)
(0.0 0.0 0.571086232584)
(0.0 0.0 0.641070758832)
(0.0 0.0 0.712156246841)
(0.0 0.0 0.790169989715)
(0.0 0.0 0.869626099184)
(0.0 0.0 0.953179682063)
(0.0 0.0 1.04132948708)
(0.0 0.0 1.13132704209)
(0.0 0.0 1.23268614119)
(0.0 0.0 1.33686356251)
(0.0 0.0 1.44812582206)
(0.0 0.0 1.57129924005)
(0.0 0.0 1.69269576928)
(0.0 0.0 1.82843580472)
(0.0 0.0 1.9782806036)
(0.0 0.0 2.13044896706)
(0.0 0.0 2.30004925649)
(0.0 0.0 2.49728098781)
(0.0 0.0 2.68083111618)
(0.0 0.0 2.88334407506)
(0.0 0.0 3.13175161224)
(0.0 0.0 3.38884491338)
(0.0 0.0 3.68632850645)
(0.0 0.0 3.97910003486)
(0.0 0.0 4.30129049794)
(0.0 0.0 4.6939874425)
(0.0 0.0 5.06001758071)
(0.0 0.0 5.59639381412)
(0.0 0.0 6.15021423494)
(0.0 0.0 6.68780120048)
(0.0 0.0 7.10357585254)
(0.0 0.0 7.16713637238)
(0.0 0.0 6.94447538714)
(0.0 0.0 6.68392805567)
(0.0 0.0 6.84559764686)
(0.0 0.0 7.29821990756)
(0.0 0.0 7.69656406951)
(0.0 0.0 8.13912872113)
(0.0 0.0 8.23677732904)
(0.0 0.0 8.4926157593)
(0.0 0.0 8.61415128435)
(0.0 0.0 8.60175701433)
(0.0 0.0 8.48963721532)
(0.0 0.0 8.2880118615)
(0.0 0.0 8.01439511781)
(0.0 0.0 7.6982315799)
(0.0 0.0 7.24174532136)
(0.0 0.0 6.90622632998)
(0.0 0.0 6.37716909029)
(0.0 0.0 5.74132716331)
(0.0 0.0 5.3847109507)
(0.0 0.0 5.35475256337)
(0.0 0.0 5.29300425716)
(0.0 0.0 5.29048142847)
(0.0 0.0 5.25946629783)
(0.0 0.0 5.25965811919)
(0.0 0.0 5.17980081313)
(0.0 0.0 5.18044223288)
(0.0 0.0 5.06022944188)
(0.0 0.0 5.06632420171)
(0.0 0.0 4.93135307136)
(0.0 0.0 4.84203614803)
(0.0 0.0 4.73511417118)
(0.0 0.0 4.54271742812)
(0.0 0.0 4.30033711693)
(0.0 0.0 3.98249535346)
(0.0 0.0 3.72136412618)
(0.0 0.0 3.46783839134)
(0.0 0.0 3.21759734497)
(0.0 0.0 2.99317490884)
(0.0 0.0 2.77413692326)
(0.0 0.0 2.58772405439)
(0.0 0.0 2.40297016505)
(0.0 0.0 2.22036377156)
(0.0 0.0 2.06259769654)
(0.0 0.0 1.90555671772)
(0.0 0.0 1.76260984438)
(0.0 0.0 1.61328662757)
(0.0 0.0 1.47562301847)
(0.0 0.0 1.34338589508)
(0.0 0.0 1.21573346282)
(0.0 0.0 1.09062984603)
(0.0 0.0 0.970771424535)
(0.0 0.0 0.85232856624)
(0.0 0.0 0.736114561593)
(0.0 0.0 0.62158215844)
(0.0 0.0 0.508215887166)
(0.0 0.0 0.395529440813)
(0.0 0.0 0.283057511314)
(0.0 0.0 0.170175564772)
(0.0 0.0 0.0561689103118)
)
;

boundaryField
{
    ground
    {
        type            zeroGradient;
    }
    top
    {
        type            zeroGradient;
    }
    left
    {
        type            zeroGradient;
    }
    right
    {
        type            zeroGradient;
    }
    defaultFaces
    {
        type            empty;
    }
}


// ************************************************************************* //