/*--------------------------------*- C++ -*----------------------------------*| =========                 |                                                 |
| \      /  F ield         | OpenFOAM: The Open Source CFD Toolbox           |
|  \    /   O peration     | Version:  dev                                   |
|   \  /    A nd           | Web:      www.OpenFOAM.org                      |
|    \/     M anipulation  |                                                 |
\*---------------------------------------------------------------------------*/
FoamFile
{
    version     2.0;
    format      ascii;
    class       volVectorField;
    location    "0";
    object      u.buoyant;
}
// * * * * * * * * * * * * * * * * * * * * * * * * * * * * * * * * * * * * * //

dimensions      [0 1 -1 0 0 0 0];

internalField   nonuniform List<vector> 
100
(
(0.0 0.0 0.00124529051752)
(0.0 0.0 0.0117991199411)
(0.0 0.0 0.0325815503843)
(0.0 0.0 0.0624582552476)
(0.0 0.0 0.099859923466)
(0.0 0.0 0.143145548453)
(0.0 0.0 0.192752819855)
(0.0 0.0 0.250285598462)
(0.0 0.0 0.316624419781)
(0.0 0.0 0.39223105788)
(0.0 0.0 0.477043726562)
(0.0 0.0 0.570249206821)
(0.0 0.0 0.670013145447)
(0.0 0.0 0.773219837475)
(0.0 0.0 0.876914985332)
(0.0 0.0 0.982308990906)
(0.0 0.0 1.09011515853)
(0.0 0.0 1.200741117)
(0.0 0.0 1.31470059576)
(0.0 0.0 1.43266125852)
(0.0 0.0 1.55556008603)
(0.0 0.0 1.68474291125)
(0.0 0.0 1.82225871829)
(0.0 0.0 1.96974141437)
(0.0 0.0 2.1283770617)
(0.0 0.0 2.29938052351)
(0.0 0.0 2.48415458831)
(0.0 0.0 2.68443712492)
(0.0 0.0 2.9025152374)
(0.0 0.0 3.13996748836)
(0.0 0.0 3.39867522776)
(0.0 0.0 3.6821287446)
(0.0 0.0 3.99366227515)
(0.0 0.0 4.33674021001)
(0.0 0.0 4.71884782938)
(0.0 0.0 5.13491052573)
(0.0 0.0 5.62822801524)
(0.0 0.0 6.19758628755)
(0.0 0.0 6.7489758116)
(0.0 0.0 7.18599765551)
(0.0 0.0 7.21686526044)
(0.0 0.0 7.08974522044)
(0.0 0.0 6.83840152329)
(0.0 0.0 6.89162232655)
(0.0 0.0 7.55097739776)
(0.0 0.0 7.91486981249)
(0.0 0.0 8.0733744588)
(0.0 0.0 8.44926162437)
(0.0 0.0 8.3692161961)
(0.0 0.0 8.66793919208)
(0.0 0.0 8.81949480086)
(0.0 0.0 8.78419542941)
(0.0 0.0 8.52762652747)
(0.0 0.0 8.06234314043)
(0.0 0.0 7.66159387797)
(0.0 0.0 7.43444845963)
(0.0 0.0 7.02887575054)
(0.0 0.0 6.41918555742)
(0.0 0.0 5.75693929828)
(0.0 0.0 5.40165456162)
(0.0 0.0 5.40493405026)
(0.0 0.0 5.38164591008)
(0.0 0.0 5.27647435794)
(0.0 0.0 5.34653728452)
(0.0 0.0 5.2293504785)
(0.0 0.0 5.24984148959)
(0.0 0.0 5.13493340675)
(0.0 0.0 5.15453434152)
(0.0 0.0 5.00036045637)
(0.0 0.0 4.99082671683)
(0.0 0.0 4.86004754867)
(0.0 0.0 4.73428125855)
(0.0 0.0 4.55864771586)
(0.0 0.0 4.3097742705)
(0.0 0.0 4.01893715811)
(0.0 0.0 3.73327299139)
(0.0 0.0 3.46785453061)
(0.0 0.0 3.22380568009)
(0.0 0.0 2.99741105276)
(0.0 0.0 2.78633269382)
(0.0 0.0 2.58859794288)
(0.0 0.0 2.40173964734)
(0.0 0.0 2.22496406351)
(0.0 0.0 2.05768154008)
(0.0 0.0 1.89870592608)
(0.0 0.0 1.74691202687)
(0.0 0.0 1.5996908608)
(0.0 0.0 1.45396455652)
(0.0 0.0 1.30806839333)
(0.0 0.0 1.16100078794)
(0.0 0.0 1.0122635649)
(0.0 0.0 0.861790354759)
(0.0 0.0 0.708279573669)
(0.0 0.0 0.555164801637)
(0.0 0.0 0.413634410144)
(0.0 0.0 0.290778564817)
(0.0 0.0 0.189293737041)
(0.0 0.0 0.108162479903)
(0.0 0.0 0.0433573436157)
(0.0 0.0 0.00503253377412)
)
;

boundaryField
{
    ground
    {
        type            zeroGradient;
    }
    top
    {
        type            zeroGradient;
    }
    left
    {
        type            zeroGradient;
    }
    right
    {
        type            zeroGradient;
    }
    defaultFaces
    {
        type            empty;
    }
}


// ************************************************************************* //