/*--------------------------------*- C++ -*----------------------------------*| =========                 |                                                 |
| \      /  F ield         | OpenFOAM: The Open Source CFD Toolbox           |
|  \    /   O peration     | Version:  dev                                   |
|   \  /    A nd           | Web:      www.OpenFOAM.org                      |
|    \/     M anipulation  |                                                 |
\*---------------------------------------------------------------------------*/
FoamFile
{
    version     2.0;
    format      ascii;
    class       volVectorField;
    location    "0";
    object      u.buoyant;
}
// * * * * * * * * * * * * * * * * * * * * * * * * * * * * * * * * * * * * * //

dimensions      [0 1 -1 0 0 0 0];

internalField   nonuniform List<vector> 
100
(
(0.0 0.0 -2.95182106047e-06)
(0.0 0.0 0.0603647220013)
(0.0 0.0 0.103733022161)
(0.0 0.0 0.149059750623)
(0.0 0.0 0.196020774962)
(0.0 0.0 0.243426900776)
(0.0 0.0 0.290826450105)
(0.0 0.0 0.337965339526)
(0.0 0.0 0.384478682142)
(0.0 0.0 0.429931242585)
(0.0 0.0 0.477396542311)
(0.0 0.0 0.516927525004)
(0.0 0.0 0.554171362411)
(0.0 0.0 0.589624697992)
(0.0 0.0 0.621646064858)
(0.0 0.0 0.649831727879)
(0.0 0.0 0.673823001005)
(0.0 0.0 0.693315046166)
(0.0 0.0 0.708063345657)
(0.0 0.0 0.717892728215)
(0.0 0.0 0.722697155525)
(0.0 0.0 0.722452390703)
(0.0 0.0 0.717216346984)
(0.0 0.0 0.707104062698)
(0.0 0.0 0.692313442614)
(0.0 0.0 0.673116414404)
(0.0 0.0 0.649848855731)
(0.0 0.0 0.622904032422)
(0.0 0.0 0.592724176544)
(0.0 0.0 0.559790603568)
(0.0 0.0 0.524612995675)
(0.0 0.0 0.487718187123)
(0.0 0.0 0.44850819896)
(0.0 0.0 0.402858918394)
(0.0 0.0 0.36779356055)
(0.0 0.0 0.322052941969)
(0.0 0.0 0.288408022915)
(0.0 0.0 0.254835766919)
(0.0 0.0 0.224102691203)
(0.0 0.0 0.204075873483)
(0.0 0.0 0.186933667314)
(0.0 0.0 0.167386760173)
(0.0 0.0 0.151903403537)
(0.0 0.0 0.140915729928)
(0.0 0.0 0.127681347915)
(0.0 0.0 0.117390077226)
(0.0 0.0 0.10828985685)
(0.0 0.0 0.0992010446433)
(0.0 0.0 0.0934068485966)
(0.0 0.0 0.086197366736)
(0.0 0.0 0.0802183116071)
(0.0 0.0 0.0748157514479)
(0.0 0.0 0.0695544403595)
(0.0 0.0 0.0654033003697)
(0.0 0.0 0.0608059268785)
(0.0 0.0 0.057514193966)
(0.0 0.0 0.0535366044165)
(0.0 0.0 0.0508209633418)
(0.0 0.0 0.0474342158248)
(0.0 0.0 0.0451054620428)
(0.0 0.0 0.0422566524597)
(0.0 0.0 0.0401804818446)
(0.0 0.0 0.0378309706491)
(0.0 0.0 0.0358934970277)
(0.0 0.0 0.0340194496503)
(0.0 0.0 0.032135652752)
(0.0 0.0 0.0304317990913)
(0.0 0.0 0.0286918851732)
(0.0 0.0 0.0273170907909)
(0.0 0.0 0.0259513055283)
(0.0 0.0 0.0244539805031)
(0.0 0.0 0.0232450253652)
(0.0 0.0 0.0220252125342)
(0.0 0.0 0.0207624285854)
(0.0 0.0 0.0197755462314)
(0.0 0.0 0.0187260066471)
(0.0 0.0 0.0177349846291)
(0.0 0.0 0.0167595318057)
(0.0 0.0 0.0158389211696)
(0.0 0.0 0.0149561395474)
(0.0 0.0 0.0141184021555)
(0.0 0.0 0.0132457750673)
(0.0 0.0 0.0124666423044)
(0.0 0.0 0.0116880490839)
(0.0 0.0 0.0109285350981)
(0.0 0.0 0.0101837614468)
(0.0 0.0 0.00943631949361)
(0.0 0.0 0.00874121173865)
(0.0 0.0 0.00803669535086)
(0.0 0.0 0.00733878916255)
(0.0 0.0 0.00664968496784)
(0.0 0.0 0.00596523805169)
(0.0 0.0 0.00527952809226)
(0.0 0.0 0.00459386940035)
(0.0 0.0 0.00390552282246)
(0.0 0.0 0.0032106712226)
(0.0 0.0 0.00250815312687)
(0.0 0.0 0.00180271073341)
(0.0 0.0 0.00108737602512)
(0.0 0.0 0.000295149730357)
)
;

boundaryField
{
    ground
    {
        type            zeroGradient;
    }
    top
    {
        type            zeroGradient;
    }
    left
    {
        type            zeroGradient;
    }
    right
    {
        type            zeroGradient;
    }
    defaultFaces
    {
        type            empty;
    }
}


// ************************************************************************* //