/*--------------------------------*- C++ -*----------------------------------*| =========                 |                                                 |
| \      /  F ield         | OpenFOAM: The Open Source CFD Toolbox           |
|  \    /   O peration     | Version:  dev                                   |
|   \  /    A nd           | Web:      www.OpenFOAM.org                      |
|    \/     M anipulation  |                                                 |
\*---------------------------------------------------------------------------*/
FoamFile
{
    version     2.0;
    format      ascii;
    class       volVectorField;
    location    "0";
    object      u.buoyant;
}
// * * * * * * * * * * * * * * * * * * * * * * * * * * * * * * * * * * * * * //

dimensions      [0 1 -1 0 0 0 0];

internalField   nonuniform List<vector> 
100
(
(0.0 0.0 0.027324089071)
(0.0 0.0 0.082245146317)
(0.0 0.0 0.139952241486)
(0.0 0.0 0.197072932744)
(0.0 0.0 0.255025529142)
(0.0 0.0 0.313923702637)
(0.0 0.0 0.373884146802)
(0.0 0.0 0.435026015152)
(0.0 0.0 0.497472907129)
(0.0 0.0 0.561355069667)
(0.0 0.0 0.626805044859)
(0.0 0.0 0.705163680712)
(0.0 0.0 0.788255008068)
(0.0 0.0 0.861937543812)
(0.0 0.0 0.937935994168)
(0.0 0.0 1.01642750338)
(0.0 0.0 1.13494173733)
(0.0 0.0 1.22246818603)
(0.0 0.0 1.313313669)
(0.0 0.0 1.4077109749)
(0.0 0.0 1.55928603699)
(0.0 0.0 1.66629815006)
(0.0 0.0 1.77803654532)
(0.0 0.0 1.9642910049)
(0.0 0.0 2.09270562768)
(0.0 0.0 2.2274668126)
(0.0 0.0 2.45959929405)
(0.0 0.0 2.61680352015)
(0.0 0.0 2.78268781019)
(0.0 0.0 3.07690570891)
(0.0 0.0 3.27378879209)
(0.0 0.0 3.626514446)
(0.0 0.0 3.86363685824)
(0.0 0.0 4.11718507001)
(0.0 0.0 4.58158387687)
(0.0 0.0 4.89412276733)
(0.0 0.0 5.47148995233)
(0.0 0.0 5.87902722279)
(0.0 0.0 6.32667643148)
(0.0 0.0 7.09131441272)
(0.0 0.0 7.14862757318)
(0.0 0.0 7.06633201076)
(0.0 0.0 6.89709628916)
(0.0 0.0 6.44766317129)
(0.0 0.0 7.05729896293)
(0.0 0.0 7.81659411036)
(0.0 0.0 7.95155214729)
(0.0 0.0 8.06126543467)
(0.0 0.0 8.5644667859)
(0.0 0.0 8.64076663453)
(0.0 0.0 8.2923646642)
(0.0 0.0 8.68373979513)
(0.0 0.0 8.2509008872)
(0.0 0.0 8.15992680409)
(0.0 0.0 8.03220915514)
(0.0 0.0 7.8749851241)
(0.0 0.0 7.36797890399)
(0.0 0.0 6.90921382566)
(0.0 0.0 6.47543854604)
(0.0 0.0 6.32689295537)
(0.0 0.0 5.38852322702)
(0.0 0.0 5.30565726109)
(0.0 0.0 5.20336539841)
(0.0 0.0 5.28946876406)
(0.0 0.0 5.17450579787)
(0.0 0.0 5.23498077797)
(0.0 0.0 5.09899634723)
(0.0 0.0 5.13872743298)
(0.0 0.0 4.97234748)
(0.0 0.0 4.98918277714)
(0.0 0.0 4.98591836568)
(0.0 0.0 4.77703364426)
(0.0 0.0 4.74549079943)
(0.0 0.0 4.50714334613)
(0.0 0.0 4.26603469088)
(0.0 0.0 4.03137948183)
(0.0 0.0 3.6541260994)
(0.0 0.0 3.45136285736)
(0.0 0.0 3.12935683655)
(0.0 0.0 2.95187584806)
(0.0 0.0 2.78034608343)
(0.0 0.0 2.51596563597)
(0.0 0.0 2.36137317051)
(0.0 0.0 2.210340153)
(0.0 0.0 1.98801653718)
(0.0 0.0 1.85017988609)
(0.0 0.0 1.714926532)
(0.0 0.0 1.58197249999)
(0.0 0.0 1.451037838)
(0.0 0.0 1.27596787831)
(0.0 0.0 1.15308978077)
(0.0 0.0 1.03121550422)
(0.0 0.0 0.91009341967)
(0.0 0.0 0.789470565381)
(0.0 0.0 0.669095140568)
(0.0 0.0 0.539257909702)
(0.0 0.0 0.413612995262)
(0.0 0.0 0.296550605982)
(0.0 0.0 0.178681623847)
(0.0 0.0 0.0597573708099)
)
;

boundaryField
{
    ground
    {
        type            zeroGradient;
    }
    top
    {
        type            zeroGradient;
    }
    left
    {
        type            zeroGradient;
    }
    right
    {
        type            zeroGradient;
    }
    defaultFaces
    {
        type            empty;
    }
}


// ************************************************************************* //