/*--------------------------------*- C++ -*----------------------------------*| =========                 |                                                 |
| \      /  F ield         | OpenFOAM: The Open Source CFD Toolbox           |
|  \    /   O peration     | Version:  dev                                   |
|   \  /    A nd           | Web:      www.OpenFOAM.org                      |
|    \/     M anipulation  |                                                 |
\*---------------------------------------------------------------------------*/
FoamFile
{
    version     2.0;
    format      ascii;
    class       volVectorField;
    location    "0";
    object      u.buoyant;
}
// * * * * * * * * * * * * * * * * * * * * * * * * * * * * * * * * * * * * * //

dimensions      [0 1 -1 0 0 0 0];

internalField   nonuniform List<vector> 
100
(
(0.0 0.0 0.0012517562624)
(0.0 0.0 0.0118030465481)
(0.0 0.0 0.0325775301851)
(0.0 0.0 0.0624550353449)
(0.0 0.0 0.0998610787127)
(0.0 0.0 0.143146704774)
(0.0 0.0 0.1927583226)
(0.0 0.0 0.250290023311)
(0.0 0.0 0.316617588149)
(0.0 0.0 0.392207370378)
(0.0 0.0 0.477001910707)
(0.0 0.0 0.570222490405)
(0.0 0.0 0.670004492366)
(0.0 0.0 0.77321467083)
(0.0 0.0 0.876935739432)
(0.0 0.0 0.982335727785)
(0.0 0.0 1.09012822429)
(0.0 0.0 1.20075966467)
(0.0 0.0 1.31472644203)
(0.0 0.0 1.43268134747)
(0.0 0.0 1.55555116755)
(0.0 0.0 1.6847395487)
(0.0 0.0 1.82224794121)
(0.0 0.0 1.9697312524)
(0.0 0.0 2.12837910463)
(0.0 0.0 2.29939937325)
(0.0 0.0 2.48418579249)
(0.0 0.0 2.684455744)
(0.0 0.0 2.90251854224)
(0.0 0.0 3.13995216274)
(0.0 0.0 3.39867244982)
(0.0 0.0 3.68213096656)
(0.0 0.0 3.99366555281)
(0.0 0.0 4.33674200077)
(0.0 0.0 4.71883793566)
(0.0 0.0 5.13489352946)
(0.0 0.0 5.62821597025)
(0.0 0.0 6.19758375647)
(0.0 0.0 6.74897162705)
(0.0 0.0 7.18599130444)
(0.0 0.0 7.2168625586)
(0.0 0.0 7.08975256417)
(0.0 0.0 6.83840277552)
(0.0 0.0 6.89157782424)
(0.0 0.0 7.5509459333)
(0.0 0.0 7.91486181674)
(0.0 0.0 8.07336937527)
(0.0 0.0 8.44925749999)
(0.0 0.0 8.36919017777)
(0.0 0.0 8.66795493142)
(0.0 0.0 8.81952423974)
(0.0 0.0 8.78421840972)
(0.0 0.0 8.52763432288)
(0.0 0.0 8.06235602741)
(0.0 0.0 7.66161782716)
(0.0 0.0 7.43446235194)
(0.0 0.0 7.02884703693)
(0.0 0.0 6.41918695743)
(0.0 0.0 5.75695577429)
(0.0 0.0 5.40164354862)
(0.0 0.0 5.4048944566)
(0.0 0.0 5.38159011791)
(0.0 0.0 5.27642502212)
(0.0 0.0 5.34650266701)
(0.0 0.0 5.22932899695)
(0.0 0.0 5.2498265413)
(0.0 0.0 5.13493908204)
(0.0 0.0 5.1545601114)
(0.0 0.0 5.00038332416)
(0.0 0.0 4.99086230501)
(0.0 0.0 4.86007353288)
(0.0 0.0 4.73429497)
(0.0 0.0 4.55865375546)
(0.0 0.0 4.30979735677)
(0.0 0.0 4.01894686138)
(0.0 0.0 3.73328288637)
(0.0 0.0 3.46787554957)
(0.0 0.0 3.22381475413)
(0.0 0.0 2.99740387684)
(0.0 0.0 2.78632706416)
(0.0 0.0 2.58861181232)
(0.0 0.0 2.40175922073)
(0.0 0.0 2.2249904787)
(0.0 0.0 2.05768984399)
(0.0 0.0 1.89870270707)
(0.0 0.0 1.74693151239)
(0.0 0.0 1.59972681679)
(0.0 0.0 1.45399737539)
(0.0 0.0 1.30804210768)
(0.0 0.0 1.16097901292)
(0.0 0.0 1.01227759473)
(0.0 0.0 0.861791578995)
(0.0 0.0 0.708337627105)
(0.0 0.0 0.555208213657)
(0.0 0.0 0.413626408016)
(0.0 0.0 0.290766769451)
(0.0 0.0 0.189306506172)
(0.0 0.0 0.108187928472)
(0.0 0.0 0.0433756552431)
(0.0 0.0 0.00503742632279)
)
;

boundaryField
{
    ground
    {
        type            zeroGradient;
    }
    top
    {
        type            zeroGradient;
    }
    left
    {
        type            zeroGradient;
    }
    right
    {
        type            zeroGradient;
    }
    defaultFaces
    {
        type            empty;
    }
}


// ************************************************************************* //