/*--------------------------------*- C++ -*----------------------------------*| =========                 |                                                 |
| \      /  F ield         | OpenFOAM: The Open Source CFD Toolbox           |
|  \    /   O peration     | Version:  dev                                   |
|   \  /    A nd           | Web:      www.OpenFOAM.org                      |
|    \/     M anipulation  |                                                 |
\*---------------------------------------------------------------------------*/
FoamFile
{
    version     2.0;
    format      ascii;
    class       volVectorField;
    location    "0";
    object      u.stable;
}
// * * * * * * * * * * * * * * * * * * * * * * * * * * * * * * * * * * * * * //

dimensions      [0 1 -1 0 0 0 0];

internalField   nonuniform List<vector> 
100
(
(0.0 0.0 -0.00414593495855)
(0.0 0.0 -0.0319271845004)
(0.0 0.0 -0.0827762286913)
(0.0 0.0 -0.150026658606)
(0.0 0.0 -0.223603943339)
(0.0 0.0 -0.293906041052)
(0.0 0.0 -0.36113629799)
(0.0 0.0 -0.428082503289)
(0.0 0.0 -0.496095147703)
(0.0 0.0 -0.565817989732)
(0.0 0.0 -0.637702475394)
(0.0 0.0 -0.712152194112)
(0.0 0.0 -0.789420015481)
(0.0 0.0 -0.869922165357)
(0.0 0.0 -0.953942896627)
(0.0 0.0 -1.0419567719)
(0.0 0.0 -1.13420701557)
(0.0 0.0 -1.23106465557)
(0.0 0.0 -1.33299310748)
(0.0 0.0 -1.44066629651)
(0.0 0.0 -1.55439261497)
(0.0 0.0 -1.67492406025)
(0.0 0.0 -1.80283197324)
(0.0 0.0 -1.93876984618)
(0.0 0.0 -2.08409543125)
(0.0 0.0 -2.23885491308)
(0.0 0.0 -2.4051130856)
(0.0 0.0 -2.58445655129)
(0.0 0.0 -2.77659750854)
(0.0 0.0 -2.98674064534)
(0.0 0.0 -3.214577032)
(0.0 0.0 -3.46641238533)
(0.0 0.0 -3.77391764215)
(0.0 0.0 -4.10684910712)
(0.0 0.0 -4.41892467416)
(0.0 0.0 -4.6587494876)
(0.0 0.0 -4.83026618533)
(0.0 0.0 -4.71568013981)
(0.0 0.0 -4.66243064805)
(0.0 0.0 -4.67890295674)
(0.0 0.0 -4.69778310247)
(0.0 0.0 -4.74906731494)
(0.0 0.0 -4.77964366072)
(0.0 0.0 -4.82826018152)
(0.0 0.0 -4.8723914166)
(0.0 0.0 -4.81900143673)
(0.0 0.0 -4.75143969334)
(0.0 0.0 -4.73733426333)
(0.0 0.0 -4.77461248396)
(0.0 0.0 -4.76785653318)
(0.0 0.0 -4.85514638009)
(0.0 0.0 -5.11174524885)
(0.0 0.0 -5.36682692374)
(0.0 0.0 -5.20948272103)
(0.0 0.0 -5.1190882691)
(0.0 0.0 -5.01480200092)
(0.0 0.0 -4.72801444936)
(0.0 0.0 -4.62102307025)
(0.0 0.0 -4.36371129588)
(0.0 0.0 -4.2198778054)
(0.0 0.0 -3.95686894925)
(0.0 0.0 -3.80921847529)
(0.0 0.0 -3.54594134364)
(0.0 0.0 -3.34378367224)
(0.0 0.0 -3.13572111392)
(0.0 0.0 -2.90752555537)
(0.0 0.0 -2.7163130914)
(0.0 0.0 -2.53752659172)
(0.0 0.0 -2.39273773074)
(0.0 0.0 -2.26512413474)
(0.0 0.0 -2.14594957587)
(0.0 0.0 -2.03152556967)
(0.0 0.0 -1.92232362988)
(0.0 0.0 -1.81752102604)
(0.0 0.0 -1.71713583723)
(0.0 0.0 -1.62090107549)
(0.0 0.0 -1.52841321075)
(0.0 0.0 -1.43962794103)
(0.0 0.0 -1.35413412418)
(0.0 0.0 -1.27189222774)
(0.0 0.0 -1.19259493569)
(0.0 0.0 -1.1160380467)
(0.0 0.0 -1.04204071239)
(0.0 0.0 -0.970439402473)
(0.0 0.0 -0.90103589491)
(0.0 0.0 -0.833610100505)
(0.0 0.0 -0.767995792949)
(0.0 0.0 -0.704029136994)
(0.0 0.0 -0.641459603777)
(0.0 0.0 -0.580098009613)
(0.0 0.0 -0.51968853192)
(0.0 0.0 -0.45995103667)
(0.0 0.0 -0.400509186051)
(0.0 0.0 -0.340786409464)
(0.0 0.0 -0.279470457304)
(0.0 0.0 -0.214040269533)
(0.0 0.0 -0.144787457623)
(0.0 0.0 -0.0809624648629)
(0.0 0.0 -0.0317028138318)
(0.0 0.0 -0.0041363051376)
)
;

boundaryField
{
    ground
    {
        type            zeroGradient;
    }
    top
    {
        type            zeroGradient;
    }
    left
    {
        type            zeroGradient;
    }
    right
    {
        type            zeroGradient;
    }
    defaultFaces
    {
        type            empty;
    }
}


// ************************************************************************* //