/*--------------------------------*- C++ -*----------------------------------*| =========                 |                                                 |
| \      /  F ield         | OpenFOAM: The Open Source CFD Toolbox           |
|  \    /   O peration     | Version:  dev                                   |
|   \  /    A nd           | Web:      www.OpenFOAM.org                      |
|    \/     M anipulation  |                                                 |
\*---------------------------------------------------------------------------*/
FoamFile
{
    version     2.0;
    format      ascii;
    class       volVectorField;
    location    "0";
    object      u.stable;
}
// * * * * * * * * * * * * * * * * * * * * * * * * * * * * * * * * * * * * * //

dimensions      [0 1 -1 0 0 0 0];

internalField   nonuniform List<vector> 
100
(
(0.0 0.0 -0.00147400650147)
(0.0 0.0 -0.0124283594828)
(0.0 0.0 -0.0331645871379)
(0.0 0.0 -0.0614251849283)
(0.0 0.0 -0.0936205655371)
(0.0 0.0 -0.125568658198)
(0.0 0.0 -0.156224902474)
(0.0 0.0 -0.186652745566)
(0.0 0.0 -0.217162322537)
(0.0 0.0 -0.24788840663)
(0.0 0.0 -0.278910364694)
(0.0 0.0 -0.310270561044)
(0.0 0.0 -0.34199418082)
(0.0 0.0 -0.374096204139)
(0.0 0.0 -0.406622185067)
(0.0 0.0 -0.439807925097)
(0.0 0.0 -0.473797418592)
(0.0 0.0 -0.508747044305)
(0.0 0.0 -0.544777063879)
(0.0 0.0 -0.582006170135)
(0.0 0.0 -0.620559286657)
(0.0 0.0 -0.660565658354)
(0.0 0.0 -0.702148834568)
(0.0 0.0 -0.745456802657)
(0.0 0.0 -0.790671140569)
(0.0 0.0 -0.83799792248)
(0.0 0.0 -0.887668163909)
(0.0 0.0 -0.939938218805)
(0.0 0.0 -0.995089869601)
(0.0 0.0 -1.0535146388)
(0.0 0.0 -1.11571781081)
(0.0 0.0 -1.18222514944)
(0.0 0.0 -1.25336960156)
(0.0 0.0 -1.32987894137)
(0.0 0.0 -1.41257909401)
(0.0 0.0 -1.5032178865)
(0.0 0.0 -1.60176999074)
(0.0 0.0 -1.71284729477)
(0.0 0.0 -1.83916670492)
(0.0 0.0 -1.9628485073)
(0.0 0.0 -2.07712298127)
(0.0 0.0 -2.15932034165)
(0.0 0.0 -2.22462414759)
(0.0 0.0 -2.24508624365)
(0.0 0.0 -2.22484278675)
(0.0 0.0 -2.24235389467)
(0.0 0.0 -2.26939087897)
(0.0 0.0 -2.28138313808)
(0.0 0.0 -2.30909243897)
(0.0 0.0 -2.30714505619)
(0.0 0.0 -2.29824399281)
(0.0 0.0 -2.28329761268)
(0.0 0.0 -2.26637892252)
(0.0 0.0 -2.25512062051)
(0.0 0.0 -2.23653363787)
(0.0 0.0 -2.19869259801)
(0.0 0.0 -2.17581643476)
(0.0 0.0 -2.18017135483)
(0.0 0.0 -2.21126633235)
(0.0 0.0 -2.22239515437)
(0.0 0.0 -2.16925292741)
(0.0 0.0 -2.12772898263)
(0.0 0.0 -2.08626321547)
(0.0 0.0 -2.01393410816)
(0.0 0.0 -1.96838120689)
(0.0 0.0 -1.89326317935)
(0.0 0.0 -1.83801459211)
(0.0 0.0 -1.75704367715)
(0.0 0.0 -1.69307400888)
(0.0 0.0 -1.60989088929)
(0.0 0.0 -1.53209506237)
(0.0 0.0 -1.453493164)
(0.0 0.0 -1.37474291225)
(0.0 0.0 -1.303112661)
(0.0 0.0 -1.23805556647)
(0.0 0.0 -1.17728924382)
(0.0 0.0 -1.11918303332)
(0.0 0.0 -1.06302853847)
(0.0 0.0 -1.00862380067)
(0.0 0.0 -0.955761539241)
(0.0 0.0 -0.904259776823)
(0.0 0.0 -0.853984809223)
(0.0 0.0 -0.80474718004)
(0.0 0.0 -0.756382928612)
(0.0 0.0 -0.708759419868)
(0.0 0.0 -0.661754871898)
(0.0 0.0 -0.615302332501)
(0.0 0.0 -0.569344391963)
(0.0 0.0 -0.523764644663)
(0.0 0.0 -0.47844743909)
(0.0 0.0 -0.433255656397)
(0.0 0.0 -0.387950227635)
(0.0 0.0 -0.342173524622)
(0.0 0.0 -0.29554157334)
(0.0 0.0 -0.248054910622)
(0.0 0.0 -0.199658747508)
(0.0 0.0 -0.150142324509)
(0.0 0.0 -0.0985184447403)
(0.0 0.0 -0.0432115023121)
(0.0 0.0 -0.00537401840521)
)
;

boundaryField
{
    ground
    {
        type            zeroGradient;
    }
    top
    {
        type            zeroGradient;
    }
    left
    {
        type            zeroGradient;
    }
    right
    {
        type            zeroGradient;
    }
    defaultFaces
    {
        type            empty;
    }
}


// ************************************************************************* //