/*--------------------------------*- C++ -*----------------------------------*| =========                 |                                                 |
| \      /  F ield         | OpenFOAM: The Open Source CFD Toolbox           |
|  \    /   O peration     | Version:  dev                                   |
|   \  /    A nd           | Web:      www.OpenFOAM.org                      |
|    \/     M anipulation  |                                                 |
\*---------------------------------------------------------------------------*/
FoamFile
{
    version     2.0;
    format      ascii;
    class       volVectorField;
    location    "0";
    object      u.stable;
}
// * * * * * * * * * * * * * * * * * * * * * * * * * * * * * * * * * * * * * //

dimensions      [0 1 -1 0 0 0 0];

internalField   nonuniform List<vector> 
100
(
(0.0 0.0 -7.74775095426e-06)
(0.0 0.0 -0.0188367272022)
(0.0 0.0 -0.0317380741655)
(0.0 0.0 -0.0450073623147)
(0.0 0.0 -0.0588556087488)
(0.0 0.0 -0.07331381409)
(0.0 0.0 -0.0882817552942)
(0.0 0.0 -0.10360540523)
(0.0 0.0 -0.119114449675)
(0.0 0.0 -0.134625424819)
(0.0 0.0 -0.149680181842)
(0.0 0.0 -0.164682644853)
(0.0 0.0 -0.178849781027)
(0.0 0.0 -0.192140513808)
(0.0 0.0 -0.204419154583)
(0.0 0.0 -0.215504902632)
(0.0 0.0 -0.225232391644)
(0.0 0.0 -0.233456074807)
(0.0 0.0 -0.240054369916)
(0.0 0.0 -0.244931991826)
(0.0 0.0 -0.248023776586)
(0.0 0.0 -0.249298180112)
(0.0 0.0 -0.248756862561)
(0.0 0.0 -0.246434062453)
(0.0 0.0 -0.242397593565)
(0.0 0.0 -0.236749106796)
(0.0 0.0 -0.229622730959)
(0.0 0.0 -0.221182940307)
(0.0 0.0 -0.21162177973)
(0.0 0.0 -0.201156060244)
(0.0 0.0 -0.190025423644)
(0.0 0.0 -0.178492544123)
(0.0 0.0 -0.166847142957)
(0.0 0.0 -0.155370339981)
(0.0 0.0 -0.144297223457)
(0.0 0.0 -0.134097862606)
(0.0 0.0 -0.125752476721)
(0.0 0.0 -0.11841187552)
(0.0 0.0 -0.111258890925)
(0.0 0.0 -0.104922481828)
(0.0 0.0 -0.0996784308444)
(0.0 0.0 -0.0947162517974)
(0.0 0.0 -0.0898544423454)
(0.0 0.0 -0.08584746279)
(0.0 0.0 -0.0820321704931)
(0.0 0.0 -0.0781665742942)
(0.0 0.0 -0.0750470699273)
(0.0 0.0 -0.0719275211493)
(0.0 0.0 -0.0690506715171)
(0.0 0.0 -0.066491261529)
(0.0 0.0 -0.0636288199227)
(0.0 0.0 -0.0613796530027)
(0.0 0.0 -0.059046447923)
(0.0 0.0 -0.0569421225983)
(0.0 0.0 -0.054898622308)
(0.0 0.0 -0.0529285670536)
(0.0 0.0 -0.0511064114801)
(0.0 0.0 -0.0492727188776)
(0.0 0.0 -0.0476071396772)
(0.0 0.0 -0.0459149376739)
(0.0 0.0 -0.0443532436842)
(0.0 0.0 -0.0428100262739)
(0.0 0.0 -0.0413004568194)
(0.0 0.0 -0.0399099818746)
(0.0 0.0 -0.0384801571698)
(0.0 0.0 -0.0372488157389)
(0.0 0.0 -0.0358835189305)
(0.0 0.0 -0.0346259198204)
(0.0 0.0 -0.033377427837)
(0.0 0.0 -0.0321692866671)
(0.0 0.0 -0.0310536499005)
(0.0 0.0 -0.0298153247951)
(0.0 0.0 -0.0286676024108)
(0.0 0.0 -0.0275924346634)
(0.0 0.0 -0.0264115391038)
(0.0 0.0 -0.0253057354176)
(0.0 0.0 -0.0242001674026)
(0.0 0.0 -0.0231393173655)
(0.0 0.0 -0.022077890266)
(0.0 0.0 -0.0210326209448)
(0.0 0.0 -0.0199727343841)
(0.0 0.0 -0.0189735648705)
(0.0 0.0 -0.0179541287859)
(0.0 0.0 -0.0169374474579)
(0.0 0.0 -0.0159212805946)
(0.0 0.0 -0.0149051359804)
(0.0 0.0 -0.0138913234692)
(0.0 0.0 -0.0128678502928)
(0.0 0.0 -0.0118494242442)
(0.0 0.0 -0.0108321169742)
(0.0 0.0 -0.00981722293907)
(0.0 0.0 -0.00880408971498)
(0.0 0.0 -0.00779138573663)
(0.0 0.0 -0.00677762185079)
(0.0 0.0 -0.00575990276351)
(0.0 0.0 -0.0047359794265)
(0.0 0.0 -0.00370330647241)
(0.0 0.0 -0.00265997971317)
(0.0 0.0 -0.00160570331633)
(0.0 0.0 -0.000275660541414)
)
;

boundaryField
{
    ground
    {
        type            zeroGradient;
    }
    top
    {
        type            zeroGradient;
    }
    left
    {
        type            zeroGradient;
    }
    right
    {
        type            zeroGradient;
    }
    defaultFaces
    {
        type            empty;
    }
}


// ************************************************************************* //