/*--------------------------------*- C++ -*----------------------------------*| =========                 |                                                 |
| \      /  F ield         | OpenFOAM: The Open Source CFD Toolbox           |
|  \    /   O peration     | Version:  dev                                   |
|   \  /    A nd           | Web:      www.OpenFOAM.org                      |
|    \/     M anipulation  |                                                 |
\*---------------------------------------------------------------------------*/
FoamFile
{
    version     2.0;
    format      ascii;
    class       volVectorField;
    location    "0";
    object      u.stable;
}
// * * * * * * * * * * * * * * * * * * * * * * * * * * * * * * * * * * * * * //

dimensions      [0 1 -1 0 0 0 0];

internalField   nonuniform List<vector> 
100
(
(0.0 0.0 -2.95182106047e-06)
(0.0 0.0 -0.00780241241304)
(0.0 0.0 -0.0131276621208)
(0.0 0.0 -0.0186338971762)
(0.0 0.0 -0.0243706955127)
(0.0 0.0 -0.0303308348157)
(0.0 0.0 -0.0364627237726)
(0.0 0.0 -0.0427013537166)
(0.0 0.0 -0.0489757650321)
(0.0 0.0 -0.055209187159)
(0.0 0.0 -0.0612140121296)
(0.0 0.0 -0.0671483101758)
(0.0 0.0 -0.07272557495)
(0.0 0.0 -0.0778886607745)
(0.0 0.0 -0.0826023342309)
(0.0 0.0 -0.0867973844035)
(0.0 0.0 -0.0904121879376)
(0.0 0.0 -0.0933943060257)
(0.0 0.0 -0.0957019011717)
(0.0 0.0 -0.0973048611446)
(0.0 0.0 -0.0981854896183)
(0.0 0.0 -0.0983395764831)
(0.0 0.0 -0.0977764913074)
(0.0 0.0 -0.0965189313202)
(0.0 0.0 -0.0946028474838)
(0.0 0.0 -0.0920768404794)
(0.0 0.0 -0.0890013113236)
(0.0 0.0 -0.085447422292)
(0.0 0.0 -0.0814959602843)
(0.0 0.0 -0.0772363989255)
(0.0 0.0 -0.0727663717754)
(0.0 0.0 -0.0681920779076)
(0.0 0.0 -0.0636402003937)
(0.0 0.0 -0.0592528237009)
(0.0 0.0 -0.0549564787816)
(0.0 0.0 -0.0512892094058)
(0.0 0.0 -0.0479483453698)
(0.0 0.0 -0.0451822679262)
(0.0 0.0 -0.0427273223784)
(0.0 0.0 -0.0402752399462)
(0.0 0.0 -0.0380899779609)
(0.0 0.0 -0.0362957138083)
(0.0 0.0 -0.034546250964)
(0.0 0.0 -0.0328445794159)
(0.0 0.0 -0.031467981636)
(0.0 0.0 -0.0300786200119)
(0.0 0.0 -0.0288229865004)
(0.0 0.0 -0.0276948415778)
(0.0 0.0 -0.0264586759093)
(0.0 0.0 -0.0254733489618)
(0.0 0.0 -0.0244789648524)
(0.0 0.0 -0.0235648189026)
(0.0 0.0 -0.0227181710231)
(0.0 0.0 -0.0218636622324)
(0.0 0.0 -0.0211284493725)
(0.0 0.0 -0.0203240261531)
(0.0 0.0 -0.0196663254717)
(0.0 0.0 -0.0189131803802)
(0.0 0.0 -0.0183098880678)
(0.0 0.0 -0.0176169751874)
(0.0 0.0 -0.0170530673093)
(0.0 0.0 -0.0164217413149)
(0.0 0.0 -0.0158730184782)
(0.0 0.0 -0.0153001338988)
(0.0 0.0 -0.0147462384817)
(0.0 0.0 -0.0142395183932)
(0.0 0.0 -0.0137334205028)
(0.0 0.0 -0.0132690781032)
(0.0 0.0 -0.0127629228601)
(0.0 0.0 -0.0122784495611)
(0.0 0.0 -0.0118486878197)
(0.0 0.0 -0.0113774843187)
(0.0 0.0 -0.0109378651622)
(0.0 0.0 -0.0105338849358)
(0.0 0.0 -0.0100834168902)
(0.0 0.0 -0.009665581984)
(0.0 0.0 -0.00924730944922)
(0.0 0.0 -0.00884654702529)
(0.0 0.0 -0.0084489406513)
(0.0 0.0 -0.00805733559552)
(0.0 0.0 -0.00766258267194)
(0.0 0.0 -0.00728783102156)
(0.0 0.0 -0.00689823134453)
(0.0 0.0 -0.00652151202459)
(0.0 0.0 -0.00614597855233)
(0.0 0.0 -0.00576946625264)
(0.0 0.0 -0.00539980001105)
(0.0 0.0 -0.00502112607591)
(0.0 0.0 -0.00464525186256)
(0.0 0.0 -0.00426538349053)
(0.0 0.0 -0.00388422840455)
(0.0 0.0 -0.00349978239563)
(0.0 0.0 -0.00310874995133)
(0.0 0.0 -0.00271328027179)
(0.0 0.0 -0.00231287449484)
(0.0 0.0 -0.00190523034126)
(0.0 0.0 -0.00149300233689)
(0.0 0.0 -0.00107301460265)
(0.0 0.0 -0.000647474464243)
(0.0 0.0 -0.000109116186677)
)
;

boundaryField
{
    ground
    {
        type            zeroGradient;
    }
    top
    {
        type            zeroGradient;
    }
    left
    {
        type            zeroGradient;
    }
    right
    {
        type            zeroGradient;
    }
    defaultFaces
    {
        type            empty;
    }
}


// ************************************************************************* //