/*--------------------------------*- C++ -*----------------------------------*| =========                 |                                                 |
| \      /  F ield         | OpenFOAM: The Open Source CFD Toolbox           |
|  \    /   O peration     | Version:  dev                                   |
|   \  /    A nd           | Web:      www.OpenFOAM.org                      |
|    \/     M anipulation  |                                                 |
\*---------------------------------------------------------------------------*/
FoamFile
{
    version     2.0;
    format      ascii;
    class       volVectorField;
    location    "0";
    object      u.stable;
}
// * * * * * * * * * * * * * * * * * * * * * * * * * * * * * * * * * * * * * //

dimensions      [0 1 -1 0 0 0 0];

internalField   nonuniform List<vector> 
100
(
(0.0 0.0 -0.00146483754594)
(0.0 0.0 -0.0124105617766)
(0.0 0.0 -0.0331596273452)
(0.0 0.0 -0.0614293846194)
(0.0 0.0 -0.093623887675)
(0.0 0.0 -0.125574600333)
(0.0 0.0 -0.156231709103)
(0.0 0.0 -0.186651709887)
(0.0 0.0 -0.217153904132)
(0.0 0.0 -0.247869607857)
(0.0 0.0 -0.278887968059)
(0.0 0.0 -0.310262226304)
(0.0 0.0 -0.34199592823)
(0.0 0.0 -0.374100508844)
(0.0 0.0 -0.406635959215)
(0.0 0.0 -0.439812040172)
(0.0 0.0 -0.473774386987)
(0.0 0.0 -0.508723642539)
(0.0 0.0 -0.544778285831)
(0.0 0.0 -0.582026212648)
(0.0 0.0 -0.620565587627)
(0.0 0.0 -0.660555894541)
(0.0 0.0 -0.702144010597)
(0.0 0.0 -0.745450794799)
(0.0 0.0 -0.790673317614)
(0.0 0.0 -0.837994299105)
(0.0 0.0 -0.887661074767)
(0.0 0.0 -0.939947891037)
(0.0 0.0 -0.995087042815)
(0.0 0.0 -1.05351245929)
(0.0 0.0 -1.11572632631)
(0.0 0.0 -1.18221976044)
(0.0 0.0 -1.25336006989)
(0.0 0.0 -1.32987123878)
(0.0 0.0 -1.41258754307)
(0.0 0.0 -1.50321714372)
(0.0 0.0 -1.60175744999)
(0.0 0.0 -1.7128504948)
(0.0 0.0 -1.8391589533)
(0.0 0.0 -1.96284358239)
(0.0 0.0 -2.0771219244)
(0.0 0.0 -2.15931781446)
(0.0 0.0 -2.2246411943)
(0.0 0.0 -2.24510145772)
(0.0 0.0 -2.2248417853)
(0.0 0.0 -2.24233771193)
(0.0 0.0 -2.26936572492)
(0.0 0.0 -2.2813633261)
(0.0 0.0 -2.30909397472)
(0.0 0.0 -2.30714790276)
(0.0 0.0 -2.29824740261)
(0.0 0.0 -2.28329733618)
(0.0 0.0 -2.26636420659)
(0.0 0.0 -2.25510312573)
(0.0 0.0 -2.23651126121)
(0.0 0.0 -2.19869344456)
(0.0 0.0 -2.17580841658)
(0.0 0.0 -2.18015089151)
(0.0 0.0 -2.2112565099)
(0.0 0.0 -2.222381263)
(0.0 0.0 -2.16924229001)
(0.0 0.0 -2.12772537465)
(0.0 0.0 -2.0862698766)
(0.0 0.0 -2.01392522094)
(0.0 0.0 -1.96835123263)
(0.0 0.0 -1.89324219012)
(0.0 0.0 -1.8380058449)
(0.0 0.0 -1.75703109473)
(0.0 0.0 -1.69306711728)
(0.0 0.0 -1.60990073305)
(0.0 0.0 -1.53209129956)
(0.0 0.0 -1.45347602673)
(0.0 0.0 -1.37474295553)
(0.0 0.0 -1.30309983305)
(0.0 0.0 -1.23804512153)
(0.0 0.0 -1.17727815323)
(0.0 0.0 -1.11915206258)
(0.0 0.0 -1.06303205396)
(0.0 0.0 -1.00862799463)
(0.0 0.0 -0.95574643913)
(0.0 0.0 -0.904249506409)
(0.0 0.0 -0.853975252406)
(0.0 0.0 -0.8047509106)
(0.0 0.0 -0.756391128622)
(0.0 0.0 -0.708768637392)
(0.0 0.0 -0.661766358174)
(0.0 0.0 -0.615292809598)
(0.0 0.0 -0.569316212614)
(0.0 0.0 -0.523737415457)
(0.0 0.0 -0.478448831419)
(0.0 0.0 -0.433281653361)
(0.0 0.0 -0.387959977399)
(0.0 0.0 -0.34218961809)
(0.0 0.0 -0.295555420108)
(0.0 0.0 -0.248040144618)
(0.0 0.0 -0.199645246463)
(0.0 0.0 -0.15015022173)
(0.0 0.0 -0.0985409692607)
(0.0 0.0 -0.0432320016873)
(0.0 0.0 -0.00537482313745)
)
;

boundaryField
{
    ground
    {
        type            zeroGradient;
    }
    top
    {
        type            zeroGradient;
    }
    left
    {
        type            zeroGradient;
    }
    right
    {
        type            zeroGradient;
    }
    defaultFaces
    {
        type            empty;
    }
}


// ************************************************************************* //