/*--------------------------------*- C++ -*----------------------------------*| =========                 |                                                 |
| \      /  F ield         | OpenFOAM: The Open Source CFD Toolbox           |
|  \    /   O peration     | Version:  dev                                   |
|   \  /    A nd           | Web:      www.OpenFOAM.org                      |
|    \/     M anipulation  |                                                 |
\*---------------------------------------------------------------------------*/
FoamFile
{
    version     2.0;
    format      ascii;
    class       volVectorField;
    location    "0";
    object      u.stable;
}
// * * * * * * * * * * * * * * * * * * * * * * * * * * * * * * * * * * * * * //

dimensions      [0 1 -1 0 0 0 0];

internalField   nonuniform List<vector> 
100
(
(0.0 0.0 -0.0128461316488)
(0.0 0.0 -0.0386658589734)
(0.0 0.0 -0.0642999172212)
(0.0 0.0 -0.0905402617655)
(0.0 0.0 -0.1171595259)
(0.0 0.0 -0.144209916836)
(0.0 0.0 -0.17174413586)
(0.0 0.0 -0.199815536241)
(0.0 0.0 -0.22847976203)
(0.0 0.0 -0.25779531672)
(0.0 0.0 -0.287822447168)
(0.0 0.0 -0.316351940496)
(0.0 0.0 -0.345412381456)
(0.0 0.0 -0.377646500312)
(0.0 0.0 -0.410881885782)
(0.0 0.0 -0.445194735262)
(0.0 0.0 -0.473999368986)
(0.0 0.0 -0.510458379971)
(0.0 0.0 -0.548284760383)
(0.0 0.0 -0.587574342701)
(0.0 0.0 -0.61997358426)
(0.0 0.0 -0.662372245273)
(0.0 0.0 -0.70662559194)
(0.0 0.0 -0.742829638836)
(0.0 0.0 -0.791193094611)
(0.0 0.0 -0.841927043278)
(0.0 0.0 -0.883603638206)
(0.0 0.0 -0.939820449486)
(0.0 0.0 -0.999117745996)
(0.0 0.0 -1.04868261108)
(0.0 0.0 -1.11545242598)
(0.0 0.0 -1.17130602751)
(0.0 0.0 -1.24749874642)
(0.0 0.0 -1.32894062327)
(0.0 0.0 -1.39971906927)
(0.0 0.0 -1.49470125028)
(0.0 0.0 -1.57900705677)
(0.0 0.0 -1.69597845015)
(0.0 0.0 -1.82436496781)
(0.0 0.0 -1.92859492308)
(0.0 0.0 -2.05936624795)
(0.0 0.0 -2.15272102733)
(0.0 0.0 -2.2190048541)
(0.0 0.0 -2.30378551366)
(0.0 0.0 -2.27082576089)
(0.0 0.0 -2.25137188742)
(0.0 0.0 -2.29015265234)
(0.0 0.0 -2.32149298632)
(0.0 0.0 -2.32728566635)
(0.0 0.0 -2.34799840731)
(0.0 0.0 -2.38787730762)
(0.0 0.0 -2.35950167091)
(0.0 0.0 -2.37613200279)
(0.0 0.0 -2.35015859805)
(0.0 0.0 -2.31367417511)
(0.0 0.0 -2.2687415316)
(0.0 0.0 -2.24584755479)
(0.0 0.0 -2.22469410275)
(0.0 0.0 -2.19907976121)
(0.0 0.0 -2.14923060516)
(0.0 0.0 -2.23585901394)
(0.0 0.0 -2.20156086072)
(0.0 0.0 -2.15924610285)
(0.0 0.0 -2.09163273256)
(0.0 0.0 -2.04626848453)
(0.0 0.0 -1.97068448915)
(0.0 0.0 -1.91959978474)
(0.0 0.0 -1.8394751685)
(0.0 0.0 -1.78010229057)
(0.0 0.0 -1.69623806363)
(0.0 0.0 -1.60767646741)
(0.0 0.0 -1.54066694869)
(0.0 0.0 -1.44945509774)
(0.0 0.0 -1.37722461166)
(0.0 0.0 -1.30420746598)
(0.0 0.0 -1.23311454712)
(0.0 0.0 -1.18114194719)
(0.0 0.0 -1.11587326836)
(0.0 0.0 -1.06721411917)
(0.0 0.0 -1.00660880963)
(0.0 0.0 -0.947895486047)
(0.0 0.0 -0.903182755936)
(0.0 0.0 -0.847707820213)
(0.0 0.0 -0.793618138071)
(0.0 0.0 -0.750918815592)
(0.0 0.0 -0.698947347021)
(0.0 0.0 -0.647929958808)
(0.0 0.0 -0.597761621567)
(0.0 0.0 -0.548339638209)
(0.0 0.0 -0.506648468096)
(0.0 0.0 -0.457891468851)
(0.0 0.0 -0.409522366087)
(0.0 0.0 -0.361444010994)
(0.0 0.0 -0.313557441038)
(0.0 0.0 -0.265762146693)
(0.0 0.0 -0.219472571679)
(0.0 0.0 -0.172442367853)
(0.0 0.0 -0.123641011856)
(0.0 0.0 -0.0744998043762)
(0.0 0.0 -0.0249156866299)
)
;

boundaryField
{
    ground
    {
        type            zeroGradient;
    }
    top
    {
        type            zeroGradient;
    }
    left
    {
        type            zeroGradient;
    }
    right
    {
        type            zeroGradient;
    }
    defaultFaces
    {
        type            empty;
    }
}


// ************************************************************************* //