/*--------------------------------*- C++ -*----------------------------------*| =========                 |                                                 |
| \      /  F ield         | OpenFOAM: The Open Source CFD Toolbox           |
|  \    /   O peration     | Version:  dev                                   |
|   \  /    A nd           | Web:      www.OpenFOAM.org                      |
|    \/     M anipulation  |                                                 |
\*---------------------------------------------------------------------------*/
FoamFile
{
    version     2.0;
    format      ascii;
    class       volVectorField;
    location    "0";
    object      u.stable;
}
// * * * * * * * * * * * * * * * * * * * * * * * * * * * * * * * * * * * * * //

dimensions      [0 1 -1 0 0 0 0];

internalField   nonuniform List<vector> 
100
(
(0.0 0.0 -0.00011492417342)
(0.0 0.0 -0.0385854526852)
(0.0 0.0 -0.0646553239703)
(0.0 0.0 -0.0910509443472)
(0.0 0.0 -0.117653114114)
(0.0 0.0 -0.144509620512)
(0.0 0.0 -0.171842409304)
(0.0 0.0 -0.199618230503)
(0.0 0.0 -0.227860365086)
(0.0 0.0 -0.25661457866)
(0.0 0.0 -0.285930480327)
(0.0 0.0 -0.316201549684)
(0.0 0.0 -0.346382003899)
(0.0 0.0 -0.377693492399)
(0.0 0.0 -0.409735685009)
(0.0 0.0 -0.442644168567)
(0.0 0.0 -0.476911285143)
(0.0 0.0 -0.511283239705)
(0.0 0.0 -0.547170776567)
(0.0 0.0 -0.584309738849)
(0.0 0.0 -0.621811314807)
(0.0 0.0 -0.662540490154)
(0.0 0.0 -0.703988666192)
(0.0 0.0 -0.746321312485)
(0.0 0.0 -0.792200204287)
(0.0 0.0 -0.839450935732)
(0.0 0.0 -0.886916997576)
(0.0 0.0 -0.941127323522)
(0.0 0.0 -0.997504365749)
(0.0 0.0 -1.05467145881)
(0.0 0.0 -1.11681178739)
(0.0 0.0 -1.18092545254)
(0.0 0.0 -1.25412773752)
(0.0 0.0 -1.33184530098)
(0.0 0.0 -1.41374117784)
(0.0 0.0 -1.50797484591)
(0.0 0.0 -1.60280767316)
(0.0 0.0 -1.71503051598)
(0.0 0.0 -1.84190908305)
(0.0 0.0 -1.96701647812)
(0.0 0.0 -2.07423974768)
(0.0 0.0 -2.16595378401)
(0.0 0.0 -2.23827851047)
(0.0 0.0 -2.24548600451)
(0.0 0.0 -2.23837909404)
(0.0 0.0 -2.24689099108)
(0.0 0.0 -2.2565391136)
(0.0 0.0 -2.28568258331)
(0.0 0.0 -2.29643630718)
(0.0 0.0 -2.30466852977)
(0.0 0.0 -2.30811968991)
(0.0 0.0 -2.29789158952)
(0.0 0.0 -2.28059008816)
(0.0 0.0 -2.25730517457)
(0.0 0.0 -2.2306514714)
(0.0 0.0 -2.20896671741)
(0.0 0.0 -2.18304369079)
(0.0 0.0 -2.1785157707)
(0.0 0.0 -2.20750164561)
(0.0 0.0 -2.22076754132)
(0.0 0.0 -2.17518060199)
(0.0 0.0 -2.13355823277)
(0.0 0.0 -2.07912961063)
(0.0 0.0 -2.02223716375)
(0.0 0.0 -1.95594569408)
(0.0 0.0 -1.89974113951)
(0.0 0.0 -1.82534873238)
(0.0 0.0 -1.76353464942)
(0.0 0.0 -1.6815101613)
(0.0 0.0 -1.60884232377)
(0.0 0.0 -1.53242145368)
(0.0 0.0 -1.44943061079)
(0.0 0.0 -1.37526086914)
(0.0 0.0 -1.30344355495)
(0.0 0.0 -1.24094229277)
(0.0 0.0 -1.17845993386)
(0.0 0.0 -1.11908409449)
(0.0 0.0 -1.06419861956)
(0.0 0.0 -1.00984180756)
(0.0 0.0 -0.957981299938)
(0.0 0.0 -0.905674613418)
(0.0 0.0 -0.855523992678)
(0.0 0.0 -0.807224172347)
(0.0 0.0 -0.758121290043)
(0.0 0.0 -0.710630571037)
(0.0 0.0 -0.662784515363)
(0.0 0.0 -0.617489665646)
(0.0 0.0 -0.571538608509)
(0.0 0.0 -0.52595652505)
(0.0 0.0 -0.4806376486)
(0.0 0.0 -0.435564354337)
(0.0 0.0 -0.390338243809)
(0.0 0.0 -0.345207266884)
(0.0 0.0 -0.30001863298)
(0.0 0.0 -0.254694857409)
(0.0 0.0 -0.209163764594)
(0.0 0.0 -0.163356744914)
(0.0 0.0 -0.117208629094)
(0.0 0.0 -0.0706807755774)
(0.0 0.0 -0.0237476266013)
)
;

boundaryField
{
    ground
    {
        type            zeroGradient;
    }
    top
    {
        type            zeroGradient;
    }
    left
    {
        type            zeroGradient;
    }
    right
    {
        type            zeroGradient;
    }
    defaultFaces
    {
        type            empty;
    }
}


// ************************************************************************* //