/*--------------------------------*- C++ -*----------------------------------*| =========                 |                                                 |
| \      /  F ield         | OpenFOAM: The Open Source CFD Toolbox           |
|  \    /   O peration     | Version:  dev                                   |
|   \  /    A nd           | Web:      www.OpenFOAM.org                      |
|    \/     M anipulation  |                                                 |
\*---------------------------------------------------------------------------*/
FoamFile
{
    version     2.0;
    format      ascii;
    class       volVectorField;
    location    "0";
    object      u.stable;
}
// * * * * * * * * * * * * * * * * * * * * * * * * * * * * * * * * * * * * * //

dimensions      [0 1 -1 0 0 0 0];

internalField   nonuniform List<vector> 
100
(
(0.0 0.0 -0.0107270885787)
(0.0 0.0 -0.0762158260024)
(0.0 0.0 -0.150433601434)
(0.0 0.0 -0.223303895624)
(0.0 0.0 -0.296264733308)
(0.0 0.0 -0.369715120421)
(0.0 0.0 -0.44369212911)
(0.0 0.0 -0.519335341021)
(0.0 0.0 -0.597519882119)
(0.0 0.0 -0.679072617571)
(0.0 0.0 -0.765463657425)
(0.0 0.0 -0.858461903537)
(0.0 0.0 -0.958903207385)
(0.0 0.0 -1.06615020648)
(0.0 0.0 -1.17963345968)
(0.0 0.0 -1.29844558718)
(0.0 0.0 -1.42112823188)
(0.0 0.0 -1.54545897187)
(0.0 0.0 -1.66729220863)
(0.0 0.0 -1.78240681501)
(0.0 0.0 -1.89358764575)
(0.0 0.0 -2.00138553352)
(0.0 0.0 -2.10530481554)
(0.0 0.0 -2.20313444069)
(0.0 0.0 -2.29040482984)
(0.0 0.0 -2.36181248025)
(0.0 0.0 -2.4139363072)
(0.0 0.0 -2.44977404451)
(0.0 0.0 -2.4712969743)
(0.0 0.0 -2.478446591)
(0.0 0.0 -2.47135717114)
(0.0 0.0 -2.45022490851)
(0.0 0.0 -2.41526353738)
(0.0 0.0 -2.36671381276)
(0.0 0.0 -2.30396950334)
(0.0 0.0 -2.21936589235)
(0.0 0.0 -2.11546938283)
(0.0 0.0 -2.00440978889)
(0.0 0.0 -1.89384860112)
(0.0 0.0 -1.7810289764)
(0.0 0.0 -1.66069697285)
(0.0 0.0 -1.53841109241)
(0.0 0.0 -1.42828602199)
(0.0 0.0 -1.33316857965)
(0.0 0.0 -1.25155379688)
(0.0 0.0 -1.17936392351)
(0.0 0.0 -1.11274685838)
(0.0 0.0 -1.051888777)
(0.0 0.0 -0.995672440381)
(0.0 0.0 -0.943170671456)
(0.0 0.0 -0.894044812952)
(0.0 0.0 -0.848007690438)
(0.0 0.0 -0.804613616725)
(0.0 0.0 -0.763567634143)
(0.0 0.0 -0.72466669946)
(0.0 0.0 -0.687697208514)
(0.0 0.0 -0.652476148809)
(0.0 0.0 -0.618888736744)
(0.0 0.0 -0.586825498181)
(0.0 0.0 -0.556180952061)
(0.0 0.0 -0.526847476959)
(0.0 0.0 -0.498720485812)
(0.0 0.0 -0.47172688387)
(0.0 0.0 -0.445851268276)
(0.0 0.0 -0.420991659792)
(0.0 0.0 -0.397037439941)
(0.0 0.0 -0.373980112158)
(0.0 0.0 -0.351733585881)
(0.0 0.0 -0.330208116)
(0.0 0.0 -0.309288277727)
(0.0 0.0 -0.288914650628)
(0.0 0.0 -0.269037773657)
(0.0 0.0 -0.249580053796)
(0.0 0.0 -0.230486025088)
(0.0 0.0 -0.211509847475)
(0.0 0.0 -0.192810022384)
(0.0 0.0 -0.174703522954)
(0.0 0.0 -0.157430418987)
(0.0 0.0 -0.141144490436)
(0.0 0.0 -0.125940820655)
(0.0 0.0 -0.111823348387)
(0.0 0.0 -0.0987631210644)
(0.0 0.0 -0.0868053910579)
(0.0 0.0 -0.0758905773285)
(0.0 0.0 -0.0659170882876)
(0.0 0.0 -0.056845721689)
(0.0 0.0 -0.0486360707099)
(0.0 0.0 -0.04126425188)
(0.0 0.0 -0.034643707093)
(0.0 0.0 -0.0286916618498)
(0.0 0.0 -0.0233967670441)
(0.0 0.0 -0.0187489261987)
(0.0 0.0 -0.0146864702349)
(0.0 0.0 -0.0111213113382)
(0.0 0.0 -0.0080766770494)
(0.0 0.0 -0.00555878303553)
(0.0 0.0 -0.0035022531176)
(0.0 0.0 -0.001908879783)
(0.0 0.0 -0.00079072068462)
(0.0 0.0 -8.63649516172e-05)
)
;

boundaryField
{
    ground
    {
        type            zeroGradient;
    }
    top
    {
        type            zeroGradient;
    }
    left
    {
        type            zeroGradient;
    }
    right
    {
        type            zeroGradient;
    }
    defaultFaces
    {
        type            empty;
    }
}


// ************************************************************************* //