/*--------------------------------*- C++ -*----------------------------------*| =========                 |                                                 |
| \      /  F ield         | OpenFOAM: The Open Source CFD Toolbox           |
|  \    /   O peration     | Version:  dev                                   |
|   \  /    A nd           | Web:      www.OpenFOAM.org                      |
|    \/     M anipulation  |                                                 |
\*---------------------------------------------------------------------------*/
FoamFile
{
    version     2.0;
    format      ascii;
    class       volScalarField;
    location    "0";
    object      wVar.buoyant;
}
// * * * * * * * * * * * * * * * * * * * * * * * * * * * * * * * * * * * * * //

dimensions      [0 2 -2 0 0 0 0];

internalField   nonuniform List<scalar> 
100
(
0.000465924982403
0.00469172047103
0.0140553476053
0.0288341828271
0.0487045192925
0.0729687935845
0.101114894345
0.132557451975
0.166236363362
0.200748165916
0.234568658143
0.266538296776
0.296692596089
0.327435742037
0.363026027756
0.404318059819
0.452633078758
0.509741198463
0.577575394856
0.658109636114
0.753127740697
0.863893595542
0.990409117884
1.13331692923
1.29429663816
1.47535397194
1.67851055275
1.90539728548
2.15647227234
2.43421351984
2.7403224327
3.07149795348
3.427873907
3.80471221239
4.1755639647
4.58271112889
4.87505524287
5.04909484406
5.53291610578
6.72424268811
10.0671833842
13.9546900883
18.2434792589
21.1674664974
20.9963681039
21.5069859668
22.8150665866
22.2484116773
23.9129720443
22.3866601381
20.9759058821
20.021794861
19.8025895186
20.1042594009
19.4137319798
17.6572424934
16.7530059208
16.6374790509
16.3677216491
14.9902280604
12.9383820577
10.9717530202
9.56056687834
7.69415728445
6.62091240641
5.23534923221
4.46876348982
3.32865206409
3.07604998993
2.30403484049
2.23558100972
2.18779076226
2.41245122478
2.85591063035
3.28512586937
3.49780875249
3.49029922348
3.31483607158
3.02721022652
2.67476599313
2.30928393368
1.97546152494
1.68892935048
1.44405161601
1.23213120589
1.04761517022
0.889503615367
0.757455977034
0.648480158154
0.558520787845
0.48309434032
0.417782386789
0.359702022809
0.302318778489
0.238835419786
0.172252319968
0.109661031952
0.0575930448366
0.0201509178457
0.00193204298547
)
;

boundaryField
{
    ground
    {
        type            zeroGradient;
    }
    top
    {
        type            zeroGradient;
    }
    left
    {
        type            zeroGradient;
    }
    right
    {
        type            zeroGradient;
    }
    defaultFaces
    {
        type            empty;
    }
}


// ************************************************************************* //