/*--------------------------------*- C++ -*----------------------------------*| =========                 |                                                 |
| \      /  F ield         | OpenFOAM: The Open Source CFD Toolbox           |
|  \    /   O peration     | Version:  dev                                   |
|   \  /    A nd           | Web:      www.OpenFOAM.org                      |
|    \/     M anipulation  |                                                 |
\*---------------------------------------------------------------------------*/
FoamFile
{
    version     2.0;
    format      ascii;
    class       volScalarField;
    location    "0";
    object      wVar.stable;
}
// * * * * * * * * * * * * * * * * * * * * * * * * * * * * * * * * * * * * * //

dimensions      [0 2 -2 0 0 0 0];

internalField   nonuniform List<scalar> 
100
(
0.000433685210564
0.000101601820849
0.000281112567063
0.000550497037907
0.00092604556634
0.00141861814423
0.0020130729685
0.00272078943867
0.00355017696793
0.00450777236362
0.00560046861826
0.00674137086611
0.00828053377786
0.00988220883415
0.0117167463917
0.0137672600096
0.0159370945843
0.0187845699223
0.0218791063181
0.0253498950761
0.0300344311259
0.034234962319
0.0397511613761
0.0470341752099
0.054218243296
0.0634697454576
0.0767088982222
0.0887420672852
0.104767419346
0.126550380004
0.152500454987
0.188146108886
0.227083210457
0.279712345744
0.348937931309
0.433811945585
0.556365154727
0.715395780276
0.943273933755
1.26091196083
1.63930011504
1.99005598535
2.29652752308
2.62061390666
2.83102995691
2.94141044193
3.00788407047
3.0078685127
3.01110387894
2.98102368952
2.92551345532
2.88552030654
2.83421088376
2.77346171935
2.70131480852
2.62225263731
2.51927960367
2.39021211966
2.18980018205
1.95026724965
1.77331486835
1.57884642215
1.41234903277
1.23801420737
1.09285417116
0.917829514858
0.791424670416
0.644140886438
0.543402010125
0.444546428445
0.358333437478
0.305771204282
0.254738361485
0.219436215976
0.186150343249
0.160825037814
0.139538114891
0.118662036559
0.102394919998
0.0878595926174
0.0765104921973
0.0660972224889
0.0565646156874
0.0492192559642
0.0423016620467
0.0368205111552
0.0306954184871
0.0259670236865
0.0217069274821
0.0178907443806
0.0145046627223
0.0115752561401
0.0090064334512
0.00676865597926
0.0048551964279
0.00326083510603
0.00198212611571
0.00101774516734
0.000367756865791
3.9129110606e-05
)
;

boundaryField
{
    ground
    {
        type            zeroGradient;
    }
    top
    {
        type            zeroGradient;
    }
    left
    {
        type            zeroGradient;
    }
    right
    {
        type            zeroGradient;
    }
    defaultFaces
    {
        type            empty;
    }
}


// ************************************************************************* //