/*--------------------------------*- C++ -*----------------------------------*| =========                 |                                                 |
| \      /  F ield         | OpenFOAM: The Open Source CFD Toolbox           |
|  \    /   O peration     | Version:  dev                                   |
|   \  /    A nd           | Web:      www.OpenFOAM.org                      |
|    \/     M anipulation  |                                                 |
\*---------------------------------------------------------------------------*/
FoamFile
{
    version     2.0;
    format      ascii;
    class       volScalarField;
    location    "0";
    object      wVar.buoyant;
}
// * * * * * * * * * * * * * * * * * * * * * * * * * * * * * * * * * * * * * //

dimensions      [0 2 -2 0 0 0 0];

internalField   nonuniform List<scalar> 
100
(
0.0040729045832
0.0435463003947
0.122698003219
0.234965078304
0.363528011354
0.493818830273
0.660576937328
0.905873078047
1.23317067382
1.61845462656
2.03983054456
2.48396362454
2.95485474184
3.44831302776
3.97363444952
4.5458332834
5.14556967091
5.73348634954
6.23656347687
6.62296995821
7.03533311576
7.54206591701
8.13285919636
8.71157990006
9.14582508908
9.34372633333
9.29604378094
9.14306344869
8.96353396491
8.77190329899
8.58123729278
8.40351259693
8.24969476997
8.12888968988
8.02476322271
7.68537282158
7.00889851951
6.253368856
5.8459351211
5.76654465819
5.59539672803
5.2752582551
4.98605180612
4.52456640913
3.87394875388
3.15998354801
2.51909533579
2.00724642257
1.61268026259
1.30814551694
1.0703223489
0.882362193951
0.732429958185
0.61195613251
0.514472460842
0.435074057191
0.370036230632
0.316449407628
0.272070078526
0.235151262609
0.204284528815
0.178396613207
0.156615546579
0.138199950695
0.12260165067
0.109366044538
0.0981341624998
0.088623909451
0.0806095768238
0.074066248328
0.0686689638726
0.0639842655399
0.0597274026873
0.0557110998109
0.0518323026982
0.0480451829968
0.0443335394547
0.0407057690571
0.0371682705862
0.0337424896728
0.0304521930338
0.0273068424009
0.0243249673091
0.0215196853985
0.0188841238989
0.0164272766384
0.0141626502459
0.0120851187976
0.0101830413168
0.00845153246652
0.00689299126298
0.00550721840194
0.00428743586443
0.00322079789771
0.00230689906998
0.00154800777603
0.000940428356727
0.000482445471385
0.000174393205814
1.92527976846e-05
)
;

boundaryField
{
    ground
    {
        type            zeroGradient;
    }
    top
    {
        type            zeroGradient;
    }
    left
    {
        type            zeroGradient;
    }
    right
    {
        type            zeroGradient;
    }
    defaultFaces
    {
        type            empty;
    }
}


// ************************************************************************* //