/*--------------------------------*- C++ -*----------------------------------*| =========                 |                                                 |
| \      /  F ield         | OpenFOAM: The Open Source CFD Toolbox           |
|  \    /   O peration     | Version:  dev                                   |
|   \  /    A nd           | Web:      www.OpenFOAM.org                      |
|    \/     M anipulation  |                                                 |
\*---------------------------------------------------------------------------*/
FoamFile
{
    version     2.0;
    format      ascii;
    class       volScalarField;
    location    "0";
    object      wVar.buoyant;
}
// * * * * * * * * * * * * * * * * * * * * * * * * * * * * * * * * * * * * * //

dimensions      [0 2 -2 0 0 0 0];

internalField   nonuniform List<scalar> 
100
(
0.000222945207669
0.00201826181692
0.00546099232102
0.0108957831454
0.0184075983818
0.0282040768469
0.0405424280117
0.055735705006
0.0741604153641
0.0962661284284
0.122587380664
0.148331536136
0.176635673862
0.216834593882
0.264072273444
0.31952317005
0.355079244425
0.425671782967
0.508526178747
0.605823234923
0.661381922188
0.784968905438
0.930509738704
1.00471553712
1.18910871557
1.40712974662
1.50270522534
1.77751681137
2.10405002735
2.21576799111
2.62279239511
2.7104760962
3.20609563172
3.80008703598
3.79528076579
4.49139747106
4.27000016131
5.04225003486
5.98714494831
5.1938543395
8.35348519826
11.9669338123
15.8178716243
20.4938809928
20.9735103176
19.7928330184
21.2274021248
22.6217903307
20.9828897536
21.4349043751
23.671924633
20.7044093745
21.9230147885
20.4265478136
18.6026131673
16.6444478208
16.5332008313
15.9078187035
15.2848945006
13.5019047936
14.2848657778
12.4267396157
10.9545875708
8.91589195773
7.77992949396
6.13135605421
5.37689465956
4.04769605404
3.734905106
2.73359554187
1.98041069113
2.20999481744
1.78078114223
2.24856586067
2.65681037523
2.90642437805
3.40123005958
3.24122123296
3.26039485295
2.88244720064
2.4724369556
2.23703601205
1.85807526546
1.54114918235
1.37996718559
1.14257528764
0.941264761932
0.770323369726
0.625164712154
0.542224100285
0.429829316122
0.334682499603
0.254544215373
0.187592136873
0.132362761224
0.0912881544503
0.0569075206433
0.0289962647705
0.0104653722812
0.00116710461411
)
;

boundaryField
{
    ground
    {
        type            zeroGradient;
    }
    top
    {
        type            zeroGradient;
    }
    left
    {
        type            zeroGradient;
    }
    right
    {
        type            zeroGradient;
    }
    defaultFaces
    {
        type            empty;
    }
}


// ************************************************************************* //