/*--------------------------------*- C++ -*----------------------------------*| =========                 |                                                 |
| \      /  F ield         | OpenFOAM: The Open Source CFD Toolbox           |
|  \    /   O peration     | Version:  dev                                   |
|   \  /    A nd           | Web:      www.OpenFOAM.org                      |
|    \/     M anipulation  |                                                 |
\*---------------------------------------------------------------------------*/
FoamFile
{
    version     2.0;
    format      ascii;
    class       volScalarField;
    location    "0";
    object      wVar.buoyant;
}
// * * * * * * * * * * * * * * * * * * * * * * * * * * * * * * * * * * * * * //

dimensions      [0 2 -2 0 0 0 0];

internalField   nonuniform List<scalar> 
100
(
0.00108867366982
0.0095920637459
0.0241825530753
0.0399913531517
0.0525630054311
0.0617671856202
0.0741986857366
0.0916800179948
0.113467343211
0.139859305679
0.171385583151
0.208729484359
0.252732244455
0.304365148658
0.364721108499
0.435070030205
0.516738554523
0.611663409996
0.721137707062
0.847893883506
0.993089992177
1.15996743739
1.35038300973
1.56518300912
1.81088958248
2.08152285709
2.38261785961
2.71779537821
3.05954331869
3.430409519
3.78282922774
3.99749574849
4.46427415752
5.23845514322
6.50561178889
8.75724680246
12.8670113698
13.8813496793
14.1938754676
15.4377216861
16.3706491953
18.0653290779
19.0643066015
20.7384549548
21.486950278
20.5690351433
19.6388846957
19.5416659063
19.3133532886
18.2441818501
17.5991867833
16.9110708266
15.431927592
13.0498493994
11.0059143964
9.38111179334
7.38575174137
6.16980472238
4.77417306313
3.88905336713
2.81189973887
2.52942640186
1.73523362297
1.71526475699
1.62368312356
1.64713817025
1.97674115094
2.38071260063
2.8110070573
3.01884348849
2.97999051694
2.75226666204
2.42195788127
2.06279824391
1.73883869636
1.47019935036
1.24876185383
1.06407817274
0.907195813128
0.774217840735
0.660725506939
0.56388081475
0.480912534437
0.409724458253
0.348491879363
0.295828798373
0.250394017098
0.211209918888
0.177437864895
0.14839468177
0.123505878764
0.10228704377
0.0844221708213
0.0697735608347
0.0592089634052
0.0503981840413
0.0384057060258
0.0234920460901
0.00949093732623
0.00109542301856
)
;

boundaryField
{
    ground
    {
        type            zeroGradient;
    }
    top
    {
        type            zeroGradient;
    }
    left
    {
        type            zeroGradient;
    }
    right
    {
        type            zeroGradient;
    }
    defaultFaces
    {
        type            empty;
    }
}


// ************************************************************************* //