/*--------------------------------*- C++ -*----------------------------------*| =========                 |                                                 |
| \      /  F ield         | OpenFOAM: The Open Source CFD Toolbox           |
|  \    /   O peration     | Version:  dev                                   |
|   \  /    A nd           | Web:      www.OpenFOAM.org                      |
|    \/     M anipulation  |                                                 |
\*---------------------------------------------------------------------------*/
FoamFile
{
    version     2.0;
    format      ascii;
    class       volScalarField;
    location    "0";
    object      wVar.buoyant;
}
// * * * * * * * * * * * * * * * * * * * * * * * * * * * * * * * * * * * * * //

dimensions      [0 2 -2 0 0 0 0];

internalField   nonuniform List<scalar> 
100
(
0.000465457187071
0.00468882648552
0.0140523039407
0.0288319465678
0.0487045038598
0.0729725985414
0.101120010729
0.132561530374
0.166238485158
0.200749188476
0.234563380077
0.266529011237
0.296680445382
0.327429534193
0.363011762559
0.40431303012
0.452664221149
0.509789729669
0.57761379233
0.658117292356
0.753149197685
0.863883610895
0.990391313421
1.13332553685
1.294329943
1.47539556945
1.67854201076
1.90544622965
2.15652544894
2.43428079288
2.74031960522
3.07145245422
3.42783570717
3.80467252706
4.17555202553
4.58270727052
4.87505800266
5.04908033466
5.53292099777
6.7242702642
10.067220628
13.9547492682
18.243489038
21.1675349054
20.9965189575
21.507099712
22.8151108114
22.2482504298
23.912958934
22.3867532378
20.9762469253
20.022177267
19.8029370674
20.1044691079
19.4138045743
17.6573047173
16.7530504622
16.6373422845
16.3676344816
14.9901718849
12.9384410292
10.9718812145
9.5605988933
7.69404104621
6.62085686831
5.23534145162
4.4687114221
3.328636561
3.07610947433
2.30406551691
2.23563186864
2.18780507338
2.41245228728
2.85592665066
3.28520728089
3.49787879214
3.49029469083
3.31486700315
3.02729981237
2.67483998865
2.3093735039
1.9755177547
1.68890114812
1.44402367398
1.23211497911
1.04758291996
0.889471302188
0.757409483271
0.648511710234
0.558553867174
0.483069863849
0.417790574206
0.359711942416
0.30232753593
0.238837675881
0.172246544245
0.109661739921
0.0576086066116
0.020160939634
0.00193306898888
)
;

boundaryField
{
    ground
    {
        type            zeroGradient;
    }
    top
    {
        type            zeroGradient;
    }
    left
    {
        type            zeroGradient;
    }
    right
    {
        type            zeroGradient;
    }
    defaultFaces
    {
        type            empty;
    }
}


// ************************************************************************* //