/*--------------------------------*- C++ -*----------------------------------*| =========                 |                                                 |
| \      /  F ield         | OpenFOAM: The Open Source CFD Toolbox           |
|  \    /   O peration     | Version:  dev                                   |
|   \  /    A nd           | Web:      www.OpenFOAM.org                      |
|    \/     M anipulation  |                                                 |
\*---------------------------------------------------------------------------*/
FoamFile
{
    version     2.0;
    format      ascii;
    class       volScalarField;
    location    "0";
    object      wVar.stable;
}
// * * * * * * * * * * * * * * * * * * * * * * * * * * * * * * * * * * * * * //

dimensions      [0 2 -2 0 0 0 0];

internalField   nonuniform List<scalar> 
100
(
0.000397387681348
0.00287525772647
0.00590846817115
0.00771800202768
0.00776122669613
0.00741492317308
0.00765527722235
0.00813688195737
0.00877719827074
0.00955938834237
0.0104807689397
0.0115505409542
0.0127884364993
0.0142121146074
0.015855552552
0.017743116707
0.0199337374962
0.0224554371664
0.0253672264972
0.0287472192802
0.0326930230275
0.0373063376112
0.0427371523808
0.0491673103007
0.0568224962138
0.0660333196944
0.0771912263914
0.0908154270631
0.107607959223
0.128405757496
0.154242320398
0.186544262909
0.227859617543
0.281059720153
0.349639872615
0.438106512492
0.55626086689
0.716698938369
0.944621523274
1.26336761322
1.62182148077
1.98338495004
2.30662443849
2.6099684746
2.82132968619
2.91586186347
2.97330048329
2.98636234677
2.98913876117
2.96039792121
2.92514265891
2.8869561761
2.84140015162
2.77265806046
2.68872589808
2.61473557652
2.51737579529
2.37537159359
2.17206982001
1.93759040126
1.77795922797
1.57641042897
1.39192894865
1.24356405107
1.05736047193
0.923544821661
0.760176270481
0.646585032774
0.52151819193
0.432599126971
0.35771409414
0.295939386533
0.254974147043
0.219887240467
0.189405263532
0.162742992078
0.140013344822
0.120843151915
0.104664664537
0.0909325854766
0.0791236822482
0.0688868230453
0.0599893688667
0.0522120039996
0.0453838216071
0.039361713361
0.0340290706907
0.0293195333176
0.0251873358187
0.0215428994526
0.0183340928452
0.0155547705718
0.0131382985752
0.0110715708601
0.00932387633124
0.00789410010044
0.00682242003959
0.00638297666745
0.00619934489785
0.0013579230632
)
;

boundaryField
{
    ground
    {
        type            zeroGradient;
    }
    top
    {
        type            zeroGradient;
    }
    left
    {
        type            zeroGradient;
    }
    right
    {
        type            zeroGradient;
    }
    defaultFaces
    {
        type            empty;
    }
}


// ************************************************************************* //