/*--------------------------------*- C++ -*----------------------------------*| =========                 |                                                 |
| \      /  F ield         | OpenFOAM: The Open Source CFD Toolbox           |
|  \    /   O peration     | Version:  dev                                   |
|   \  /    A nd           | Web:      www.OpenFOAM.org                      |
|    \/     M anipulation  |                                                 |
\*---------------------------------------------------------------------------*/
FoamFile
{
    version     2.0;
    format      ascii;
    class       volScalarField;
    location    "0";
    object      wVar.buoyant;
}
// * * * * * * * * * * * * * * * * * * * * * * * * * * * * * * * * * * * * * //

dimensions      [0 2 -2 0 0 0 0];

internalField   nonuniform List<scalar> 
100
(
0.00043311612646
0.00767187710856
0.0215877584212
0.0421838209991
0.0696949742033
0.104072413355
0.145518827945
0.193662737563
0.247764078826
0.306825265802
0.363416873567
0.435302955539
0.507692014321
0.578565764044
0.647227652069
0.711727529922
0.770186844091
0.820871982814
0.862278617426
0.893157779149
0.912525338248
0.919819160849
0.915024328627
0.898467198606
0.870726262864
0.832779414324
0.786006083234
0.732062492614
0.672775755682
0.610050427459
0.545767371552
0.481676329408
0.4192891612
0.36941591953
0.311992793149
0.26553855263
0.224103688083
0.187110384264
0.147551947032
0.115476826142
0.0945110017961
0.077851069757
0.0624129371505
0.0521345451554
0.043908213672
0.0358845790378
0.0306866377961
0.0261265369626
0.0221808056556
0.0192994279443
0.0161573435139
0.0141105554716
0.0122136703293
0.0106389386526
0.00932226399022
0.0081212542419
0.0071768325199
0.00626727958227
0.00556521242549
0.00488189142294
0.00434014721963
0.00383294409649
0.00339726450139
0.00302792337826
0.0026822467108
0.00242190659243
0.00214562938943
0.00192194036487
0.00171259548098
0.00153053277909
0.00138307157908
0.00122396957006
0.00109335986739
0.000986050026824
0.00087179501241
0.00077703406299
0.000690598233626
0.00061489952445
0.000545951087398
0.000483431420881
0.000425022969935
0.000375881808916
0.000329931590999
0.000288083262556
0.000250002082258
0.000215419210331
0.000184478485765
0.000155948717095
0.000130645992215
0.000107971601943
8.77955321786e-05
6.99682684658e-05
5.43525427905e-05
4.08335774852e-05
2.93094749355e-05
1.97136242851e-05
1.20052026132e-05
6.17544098578e-06
2.2492029161e-06
4.11433921899e-07
)
;

boundaryField
{
    ground
    {
        type            zeroGradient;
    }
    top
    {
        type            zeroGradient;
    }
    left
    {
        type            zeroGradient;
    }
    right
    {
        type            zeroGradient;
    }
    defaultFaces
    {
        type            empty;
    }
}


// ************************************************************************* //