/*--------------------------------*- C++ -*----------------------------------*| =========                 |                                                 |
| \      /  F ield         | OpenFOAM: The Open Source CFD Toolbox           |
|  \    /   O peration     | Version:  dev                                   |
|   \  /    A nd           | Web:      www.OpenFOAM.org                      |
|    \/     M anipulation  |                                                 |
\*---------------------------------------------------------------------------*/
FoamFile
{
    version     2.0;
    format      ascii;
    class       volScalarField;
    location    "0";
    object      wVar.stable;
}
// * * * * * * * * * * * * * * * * * * * * * * * * * * * * * * * * * * * * * //

dimensions      [0 2 -2 0 0 0 0];

internalField   nonuniform List<scalar> 
100
(
0.00043311612646
0.000405276369
0.00115346658805
0.00234443396719
0.00406560011122
0.00644373279125
0.0096205582304
0.013712199171
0.0187826139828
0.0248279394159
0.0318009401167
0.0394988388429
0.0477804244128
0.0563263989586
0.0647906041566
0.0728076443051
0.0800079531612
0.0860422167619
0.0906042677109
0.0934516780739
0.094424516406
0.0934586680384
0.0905923413931
0.085965052549
0.0798091472383
0.0724357808471
0.0642143793466
0.0555472664757
0.046842551984
0.0384863966196
0.0308147111677
0.024087182863
0.0184650077678
0.0140471911171
0.0107204439098
0.00835075308915
0.00649937372948
0.00512027349023
0.00410972100631
0.00330652318084
0.00264436500665
0.00214886775075
0.00177082406329
0.001436580594
0.0011843320247
0.000998119629587
0.000818051089435
0.000689593706025
0.000577766432372
0.000481924935202
0.000428454977428
0.000359548823196
0.000315900144843
0.000272011692063
0.000239698926866
0.00021222609037
0.000188130149846
0.000170738942587
0.000153241575947
0.0001413754728
0.00012953049367
0.000120017592758
0.000113163518794
0.000103888311282
9.90278869959e-05
8.91546719668e-05
8.59192097748e-05
8.08024982918e-05
7.64655000967e-05
7.21622836043e-05
6.62073388872e-05
6.43742040415e-05
6.05889239094e-05
5.5543945835e-05
5.34985593388e-05
5.0030517492e-05
4.70366699727e-05
4.33408749066e-05
4.01875883955e-05
3.70630514145e-05
3.45244027496e-05
3.10674825222e-05
2.82554410839e-05
2.54907321826e-05
2.27918252956e-05
2.01812928521e-05
1.7647378165e-05
1.53352120903e-05
1.31273168903e-05
1.1061245412e-05
9.15228018533e-06
7.40836502822e-06
5.83502738915e-06
4.4372606735e-06
3.21819080689e-06
2.18322374831e-06
1.33850773078e-06
6.918829863e-07
2.50938131687e-07
3.96607357279e-07
)
;

boundaryField
{
    ground
    {
        type            zeroGradient;
    }
    top
    {
        type            zeroGradient;
    }
    left
    {
        type            zeroGradient;
    }
    right
    {
        type            zeroGradient;
    }
    defaultFaces
    {
        type            empty;
    }
}


// ************************************************************************* //