/*--------------------------------*- C++ -*----------------------------------*| =========                 |                                                 |
| \      /  F ield         | OpenFOAM: The Open Source CFD Toolbox           |
|  \    /   O peration     | Version:  dev                                   |
|   \  /    A nd           | Web:      www.OpenFOAM.org                      |
|    \/     M anipulation  |                                                 |
\*---------------------------------------------------------------------------*/
FoamFile
{
    version     2.0;
    format      ascii;
    class       volScalarField;
    location    "0";
    object      wVar.stable;
}
// * * * * * * * * * * * * * * * * * * * * * * * * * * * * * * * * * * * * * //

dimensions      [0 2 -2 0 0 0 0];

internalField   nonuniform List<scalar> 
100
(
0.00231935768929
0.00612300031594
0.00685771385057
0.00828957898441
0.0102479865958
0.0127639110224
0.0160618715692
0.0202074439289
0.0252732801705
0.0311448016179
0.0375628159407
0.0446184141062
0.0537651498161
0.0679512100158
0.0901125763588
0.123080196853
0.168975238541
0.229735748739
0.309865774602
0.415482662861
0.537753263163
0.668475205583
0.798201308489
0.918545742117
1.02619805528
1.12310989547
1.21083352616
1.27641113274
1.30920212292
1.30564229525
1.26430369718
1.18645319419
1.0761046491
0.939783250429
0.788425061301
0.649467855345
0.522248670857
0.392866955195
0.26756673892
0.168417769344
0.112354512032
0.0926400713395
0.0871559648986
0.0866334147874
0.0857057662345
0.0838091649339
0.0838492249017
0.0834188092608
0.0826113543833
0.0817179917115
0.0804532877643
0.0786514872664
0.0764718253077
0.074025649819
0.071390178861
0.0685999328683
0.0657022632711
0.0627532222226
0.059803484104
0.0568852249882
0.0540214264542
0.0512414202761
0.0485934829568
0.0460665634415
0.0436631254049
0.0414183818715
0.0393096969958
0.037352770612
0.0355475803358
0.0339002183026
0.0324166721352
0.0310916096252
0.0299253151425
0.0289780359645
0.0283629976213
0.0278631324472
0.0272664660407
0.0264651004214
0.0254263676276
0.0241654792741
0.0227101186974
0.0210959288518
0.0193856119999
0.0176243954183
0.01584267695
0.0140764521878
0.0123586404066
0.0107149624371
0.00916080250791
0.00770563947892
0.00635959903755
0.00513593924201
0.00403885315379
0.00306174421395
0.00221164591491
0.00149646185506
0.000916068449891
0.000473447615494
0.000172473113362
1.91913985224e-05
)
;

boundaryField
{
    ground
    {
        type            zeroGradient;
    }
    top
    {
        type            zeroGradient;
    }
    left
    {
        type            zeroGradient;
    }
    right
    {
        type            zeroGradient;
    }
    defaultFaces
    {
        type            empty;
    }
}


// ************************************************************************* //