/*--------------------------------*- C++ -*----------------------------------*| =========                 |                                                 |
| \      /  F ield         | OpenFOAM: The Open Source CFD Toolbox           |
|  \    /   O peration     | Version:  dev                                   |
|   \  /    A nd           | Web:      www.OpenFOAM.org                      |
|    \/     M anipulation  |                                                 |
\*---------------------------------------------------------------------------*/
FoamFile
{
    version     2.0;
    format      ascii;
    class       volScalarField;
    location    "0";
    object      wVar.stable;
}
// * * * * * * * * * * * * * * * * * * * * * * * * * * * * * * * * * * * * * //

dimensions      [0 2 -2 0 0 0 0];

internalField   nonuniform List<scalar> 
100
(
0.000397776529436
0.00287663693337
0.00590830850884
0.00771652882874
0.00776081230362
0.00741542823599
0.00765567834777
0.00813636003935
0.00877708919072
0.00955910279681
0.010479566246
0.0115504793208
0.0127887439945
0.0142116127101
0.0158564848963
0.01774610765
0.0199366873939
0.0224557967637
0.025366987024
0.0287484209729
0.0326923232624
0.0373104762758
0.0427422157336
0.0491700194983
0.0568310278377
0.0660355462084
0.0771885938542
0.0908169861256
0.10760325003
0.128399142452
0.154241666638
0.186533740855
0.227846142451
0.281052468823
0.349635013268
0.438071191391
0.556208030898
0.716665348333
0.944562075997
1.26333680936
1.62180941987
1.9833596049
2.30662792448
2.60998092699
2.82137407874
2.91588175307
2.97330405699
2.98636236632
2.98917274292
2.96041472833
2.92512272338
2.88693341288
2.84134775973
2.77259385046
2.68870762054
2.61483509165
2.5174348804
2.37535825463
2.17202651458
1.93752786471
1.77792962452
1.57641734781
1.39196462769
1.2435405203
1.05729612858
0.923517087248
0.760181802932
0.646620612871
0.521561490093
0.432621572508
0.357712811465
0.295937014693
0.254992650131
0.219903424974
0.189425308457
0.16274912473
0.139997743238
0.120848481925
0.104672274949
0.0909219201885
0.0791210524428
0.0688887060872
0.0599856419265
0.0522065081455
0.0453783390684
0.0393596877346
0.0340375600442
0.0293289796822
0.0251851385696
0.0215404343228
0.018332534323
0.015551795819
0.0131405702901
0.0110723852345
0.009323611216
0.00789485379661
0.0068212044842
0.0063823086491
0.0061979996747
0.0013571725699
)
;

boundaryField
{
    ground
    {
        type            zeroGradient;
    }
    top
    {
        type            zeroGradient;
    }
    left
    {
        type            zeroGradient;
    }
    right
    {
        type            zeroGradient;
    }
    defaultFaces
    {
        type            empty;
    }
}


// ************************************************************************* //