/*--------------------------------*- C++ -*----------------------------------*| =========                 |                                                 |
| \      /  F ield         | OpenFOAM: The Open Source CFD Toolbox           |
|  \    /   O peration     | Version:  dev                                   |
|   \  /    A nd           | Web:      www.OpenFOAM.org                      |
|    \/     M anipulation  |                                                 |
\*---------------------------------------------------------------------------*/
FoamFile
{
    version     2.0;
    format      ascii;
    class       volScalarField;
    location    "0";
    object      wVar.stable;
}
// * * * * * * * * * * * * * * * * * * * * * * * * * * * * * * * * * * * * * //

dimensions      [0 2 -2 0 0 0 0];

internalField   nonuniform List<scalar> 
100
(
0.0010299418024
0.00807138579891
0.017761414029
0.0251489442266
0.0292285618105
0.0344435269267
0.0418281910801
0.0509577574354
0.0618242412852
0.0744794103354
0.0890183003186
0.105507580688
0.124096134582
0.144820016922
0.167885027412
0.193149908457
0.220768724829
0.250864540554
0.283282540475
0.317737004702
0.354147203989
0.392082954937
0.431303837897
0.471305833214
0.510811156493
0.550217226073
0.58743276203
0.621695200614
0.65609936948
0.684296831568
0.712545126071
0.728486194029
0.673287361345
0.70553683834
0.979586923754
1.58785460358
2.41348186216
4.12404652122
5.08553016421
5.55957501607
5.84938685006
5.90600301016
5.92760120075
5.85239436323
5.67213586172
5.8295610152
6.025883828
6.01445427447
5.72007081002
5.50988089875
4.90499438555
3.40857322178
1.50322665532
1.38324951409
0.886977408703
0.505131786147
0.91620591288
0.458043516598
0.69873928791
0.381692836786
0.592354461038
0.338286172789
0.51909600998
0.524902129047
0.539393948638
0.661088849194
0.69893203141
0.739343643498
0.722656181453
0.684054771506
0.639583862508
0.595964778322
0.552910345246
0.511189590911
0.470723568783
0.431765827645
0.394626447669
0.359259147177
0.325855971747
0.294395858791
0.264920747496
0.237401314836
0.211802604989
0.188056111722
0.166171043552
0.146126795049
0.127743128645
0.110952223012
0.0957566155758
0.082048759422
0.0697798786143
0.0588943677775
0.0493386710351
0.0411191170953
0.0343049199657
0.0294160689886
0.0252242628176
0.0177212943378
0.0080975960117
0.00104099277129
)
;

boundaryField
{
    ground
    {
        type            zeroGradient;
    }
    top
    {
        type            zeroGradient;
    }
    left
    {
        type            zeroGradient;
    }
    right
    {
        type            zeroGradient;
    }
    defaultFaces
    {
        type            empty;
    }
}


// ************************************************************************* //