/*--------------------------------*- C++ -*----------------------------------*| =========                 |                                                 |
| \      /  F ield         | OpenFOAM: The Open Source CFD Toolbox           |
|  \    /   O peration     | Version:  dev                                   |
|   \  /    A nd           | Web:      www.OpenFOAM.org                      |
|    \/     M anipulation  |                                                 |
\*---------------------------------------------------------------------------*/
FoamFile
{
    version     2.0;
    format      ascii;
    class       volScalarField;
    location    "0";
    object      wVar.buoyant;
}
// * * * * * * * * * * * * * * * * * * * * * * * * * * * * * * * * * * * * * //

dimensions      [0 2 -2 0 0 0 0];

internalField   nonuniform List<scalar> 
100
(
0.000433685210564
0.00212645693635
0.00598648949629
0.011953342668
0.0200485273547
0.0303896872835
0.0433869482481
0.0592177204946
0.0781324814624
0.100439884201
0.126482007847
0.157604004307
0.191632640003
0.232004749758
0.278281251943
0.330959470765
0.393705477203
0.459817686853
0.538303479553
0.626615085564
0.722607102958
0.842155370334
0.970934846641
1.11197520386
1.28232834043
1.46622988804
1.64988850347
1.9085071595
2.19785169339
2.45317848252
2.76726594296
3.07078581037
3.48342705287
3.94640018077
4.2879332872
4.92506610151
5.05608004195
5.33356020327
5.93515587726
7.28349420985
10.5231312429
14.8418048904
18.9337836399
21.4460660365
22.3844361075
23.0015829923
22.7026554485
23.8285740525
23.3349039806
22.9200718907
22.5219510376
22.0588772922
21.3376842975
20.4193470109
19.3044915215
18.7712165599
17.4237775582
16.9336082344
16.5135911816
15.0961007844
13.1204255601
11.3849090297
9.57529325711
8.0862774325
6.59705945196
5.56609925394
4.35565486798
3.80493060699
2.83720171636
2.66164554892
2.33615611288
2.23743334293
2.4908850888
2.89920212566
3.40971707262
3.53328845727
3.49345243804
3.32546275034
3.03061031361
2.69200127145
2.30244456852
1.96332172373
1.68532212978
1.42502451083
1.21014515677
1.01512750683
0.858248883094
0.716077888787
0.591232386937
0.482026118018
0.38821918356
0.305330547504
0.235002737903
0.174967994165
0.124520206557
0.0830910589051
0.0502488342884
0.0257017911176
0.00932084398153
0.0010702097234
)
;

boundaryField
{
    ground
    {
        type            zeroGradient;
    }
    top
    {
        type            zeroGradient;
    }
    left
    {
        type            zeroGradient;
    }
    right
    {
        type            zeroGradient;
    }
    defaultFaces
    {
        type            empty;
    }
}


// ************************************************************************* //