/*--------------------------------*- C++ -*----------------------------------*| =========                 |                                                 |
| \      /  F ield         | OpenFOAM: The Open Source CFD Toolbox           |
|  \    /   O peration     | Version:  dev                                   |
|   \  /    A nd           | Web:      www.OpenFOAM.org                      |
|    \/     M anipulation  |                                                 |
\*---------------------------------------------------------------------------*/
FoamFile
{
    version     2.0;
    format      ascii;
    class       volScalarField;
    location    "0";
    object      wVar.buoyant;
}
// * * * * * * * * * * * * * * * * * * * * * * * * * * * * * * * * * * * * * //

dimensions      [0 2 -2 0 0 0 0];

internalField   nonuniform List<scalar> 
100
(
7.48181695714e-05
0.00130986824712
0.0036188072129
0.00711301752312
0.0117364193675
0.0175443017425
0.0245341336483
0.0326174289446
0.0416565214213
0.0514700010716
0.0607935503492
0.0723067297958
0.0841864120706
0.0955186224492
0.106342604011
0.116332394428
0.125182407537
0.132620485089
0.13842013174
0.142409405048
0.144473019786
0.144572376
0.142740057797
0.139064288689
0.133697633661
0.126850236829
0.118775012532
0.109754857828
0.100088172275
0.0900732286328
0.0799923073785
0.0700962560055
0.060994963041
0.0542741370874
0.0449772153336
0.0391131813895
0.0316038437262
0.025633184014
0.0210223907836
0.0165751755804
0.0130715004861
0.0108714470294
0.00901322101986
0.00727872700999
0.00619228450407
0.00521607600209
0.0043972916889
0.00379676689489
0.00315726103483
0.00273508929437
0.00235957855343
0.00203692686001
0.00178466105846
0.00153903823429
0.00136401456612
0.00117712875178
0.0010512167782
0.000909738980197
0.000815718449171
0.000709454829775
0.000637016823733
0.000557748755901
0.000499293043782
0.000440937685294
0.00039140081708
0.00035000506994
0.00031233375305
0.000281816715577
0.000249559590436
0.00022203856267
0.000200768843552
0.000178402726339
0.000159517045173
0.000144209596986
0.00012747551131
0.000113766207943
0.000101264362843
9.02841926206e-05
8.03350065855e-05
7.12995451716e-05
6.29209568096e-05
5.58610794293e-05
4.89089640269e-05
4.28205049198e-05
3.72606082774e-05
3.21800054461e-05
2.7720981363e-05
2.34669842112e-05
1.97331895722e-05
1.63575543578e-05
1.33438754261e-05
1.06662867115e-05
8.29834051344e-06
6.24123853711e-06
4.48485711085e-06
3.01639705767e-06
1.84133137156e-06
9.45629672256e-07
3.43323138285e-07
6.32253511358e-08
)
;

boundaryField
{
    ground
    {
        type            zeroGradient;
    }
    top
    {
        type            zeroGradient;
    }
    left
    {
        type            zeroGradient;
    }
    right
    {
        type            zeroGradient;
    }
    defaultFaces
    {
        type            empty;
    }
}


// ************************************************************************* //