/*--------------------------------*- C++ -*----------------------------------*| =========                 |                                                 |
| \      /  F ield         | OpenFOAM: The Open Source CFD Toolbox           |
|  \    /   O peration     | Version:  dev                                   |
|   \  /    A nd           | Web:      www.OpenFOAM.org                      |
|    \/     M anipulation  |                                                 |
\*---------------------------------------------------------------------------*/
FoamFile
{
    version     2.0;
    format      ascii;
    class       volScalarField;
    location    "0";
    object      wVar.stable;
}
// * * * * * * * * * * * * * * * * * * * * * * * * * * * * * * * * * * * * * //

dimensions      [0 2 -2 0 0 0 0];

internalField   nonuniform List<scalar> 
100
(
7.48181695714e-05
7.18018442549e-05
0.00020487161657
0.000417338161303
0.00072556322255
0.00115178770391
0.00171801858444
0.00243999621682
0.00332359182326
0.00436267804286
0.00554328563308
0.00682604778192
0.00818141524166
0.00955477286232
0.0108859378494
0.0121146534614
0.0131822755086
0.0140358449555
0.0146316952241
0.0149385126679
0.0149395216416
0.0146339766647
0.0140373498655
0.0131802181601
0.0121063475675
0.0108698806966
0.0095318349635
0.00815595307813
0.00680432176174
0.00553323476352
0.00438919476909
0.00340543450611
0.00259961223162
0.00197868100765
0.00152316076596
0.00118927944949
0.000938682271426
0.000739383991729
0.000587825920211
0.000477138276634
0.000387387706821
0.00031145622791
0.000255306044623
0.000211446901438
0.000171554791454
0.00014304540868
0.000118069482862
9.74108542385e-05
8.45859628279e-05
7.00668533584e-05
6.00825997312e-05
5.09700080771e-05
4.35009504957e-05
3.80853671577e-05
3.23755927922e-05
2.93784526624e-05
2.5027325792e-05
2.34413209387e-05
2.02344797147e-05
1.93410726828e-05
1.7093188394e-05
1.6443429146e-05
1.5053080266e-05
1.43187488205e-05
1.37030672823e-05
1.26769197949e-05
1.19915580349e-05
1.10670414603e-05
1.08210910186e-05
1.04471589104e-05
9.55954126727e-06
9.26516821464e-06
8.75426049765e-06
8.03572002078e-06
7.83544522612e-06
7.35814144564e-06
6.92969681716e-06
6.40528028889e-06
5.94888441871e-06
5.48843055783e-06
5.06445041384e-06
4.52425267747e-06
4.13719934244e-06
3.71622791091e-06
3.3051773603e-06
2.90660114947e-06
2.50819827494e-06
2.18682977327e-06
1.86345737698e-06
1.56210785958e-06
1.28752292276e-06
1.03901639026e-06
8.15162565098e-07
6.18019727762e-07
4.47139915883e-07
3.02658951275e-07
1.84221416512e-07
9.57700567201e-08
3.49720591712e-08
6.36332060845e-08
)
;

boundaryField
{
    ground
    {
        type            zeroGradient;
    }
    top
    {
        type            zeroGradient;
    }
    left
    {
        type            zeroGradient;
    }
    right
    {
        type            zeroGradient;
    }
    defaultFaces
    {
        type            empty;
    }
}


// ************************************************************************* //