/*--------------------------------*- C++ -*----------------------------------*| =========                 |                                                 |
| \      /  F ield         | OpenFOAM: The Open Source CFD Toolbox           |
|  \    /   O peration     | Version:  dev                                   |
|   \  /    A nd           | Web:      www.OpenFOAM.org                      |
|    \/     M anipulation  |                                                 |
\*---------------------------------------------------------------------------*/
FoamFile
{
    version     2.0;
    format      ascii;
    class       volScalarField;
    location    "0";
    object      wVar.stable;
}
// * * * * * * * * * * * * * * * * * * * * * * * * * * * * * * * * * * * * * //

dimensions      [0 2 -2 0 0 0 0];

internalField   nonuniform List<scalar> 
100
(
1.12504057301e-05
0.000101551441566
0.000310577046305
0.000608999315573
0.00100480628231
0.00149466904124
0.00207405588821
0.00273752432572
0.00347905931131
0.00429258017211
0.00517256152509
0.00678809195092
0.00865093520788
0.00991660656875
0.0112445461854
0.0126422960447
0.0170605099843
0.0188759218847
0.0208140565501
0.0229278882227
0.0300578530785
0.0329070012888
0.0361818688149
0.0468244709245
0.0515113360136
0.0572441403365
0.0734753925908
0.082239610953
0.0935200334123
0.119543648173
0.137730205683
0.176859954182
0.207024755183
0.247669024433
0.319567195705
0.390302692321
0.507987501683
0.631962184761
0.819411721646
1.13052722629
1.4548112584
1.81680417309
2.16245519151
2.41482022214
2.70533868424
2.86368431796
2.91341901825
2.95314279379
2.95567872964
2.94231194454
2.88901748734
2.86888196319
2.77575812208
2.71310475892
2.64934761833
2.59046134578
2.51026205108
2.41024945711
2.31902483701
2.22717947145
1.89748543048
1.70783611125
1.53384375201
1.36975363859
1.18947555482
1.04736929298
0.877709077806
0.753083386353
0.612784600683
0.512206394701
0.437529565687
0.343962993614
0.302067588645
0.251411954333
0.217986146984
0.193724437032
0.156300890897
0.139820008089
0.112447287044
0.100684151004
0.0907686718287
0.0719724728106
0.0644928901784
0.0578712391153
0.0449439659568
0.0397647296816
0.0350241085955
0.0306243331646
0.0265030412706
0.0192458456703
0.0160682887122
0.013133723627
0.0104441465064
0.00801142986259
0.00585426641646
0.00369052748885
0.00207725529343
0.00107618329398
0.000392777790428
4.40503623398e-05
)
;

boundaryField
{
    ground
    {
        type            zeroGradient;
    }
    top
    {
        type            zeroGradient;
    }
    left
    {
        type            zeroGradient;
    }
    right
    {
        type            zeroGradient;
    }
    defaultFaces
    {
        type            empty;
    }
}


// ************************************************************************* //